 Entering Gaussian System, Link 0=g16
 Input=4MR_IRC_O_40.com
 Output=4MR_IRC_O_40.out
 Initial command:
 /share/apps/gaussian16/wu/g16/l1.exe "/scratch/1638616/Gau-22936.inp" -scrdir="/scratch/1638616/"
 Entering Link 1 = /share/apps/gaussian16/wu/g16/l1.exe PID=     22937.
  
 Copyright (c) 1988-2019, Gaussian, Inc.  All Rights Reserved.
  
 This is part of the Gaussian(R) 16 program.  It is based on
 the Gaussian(R) 09 system (copyright 2009, Gaussian, Inc.),
 the Gaussian(R) 03 system (copyright 2003, Gaussian, Inc.),
 the Gaussian(R) 98 system (copyright 1998, Gaussian, Inc.),
 the Gaussian(R) 94 system (copyright 1995, Gaussian, Inc.),
 the Gaussian 92(TM) system (copyright 1992, Gaussian, Inc.),
 the Gaussian 90(TM) system (copyright 1990, Gaussian, Inc.),
 the Gaussian 88(TM) system (copyright 1988, Gaussian, Inc.),
 the Gaussian 86(TM) system (copyright 1986, Carnegie Mellon
 University), and the Gaussian 82(TM) system (copyright 1983,
 Carnegie Mellon University). Gaussian is a federally registered
 trademark of Gaussian, Inc.
  
 This software contains proprietary and confidential information,
 including trade secrets, belonging to Gaussian, Inc.
  
 This software is provided under written license and may be
 used, copied, transmitted, or stored only in accord with that
 written license.
  
 The following legend is applicable only to US Government
 contracts under FAR:
  
                    RESTRICTED RIGHTS LEGEND
  
 Use, reproduction and disclosure by the US Government is
 subject to restrictions as set forth in subparagraphs (a)
 and (c) of the Commercial Computer Software - Restricted
 Rights clause in FAR 52.227-19.
  
 Gaussian, Inc.
 340 Quinnipiac St., Bldg. 40, Wallingford CT 06492
  
  
 ---------------------------------------------------------------
 Warning -- This program may not be used in any manner that
 competes with the business of Gaussian, Inc. or will provide
 assistance to any competitor of Gaussian, Inc.  The licensee
 of this program is prohibited from giving any competitor of
 Gaussian, Inc. access to this program.  By using this program,
 the user acknowledges that Gaussian, Inc. is engaged in the
 business of creating and licensing software in the field of
 computational chemistry and represents and warrants to the
 licensee that it is not a competitor of Gaussian, Inc. and that
 it will not use this program in any manner prohibited above.
 ---------------------------------------------------------------
  

 Cite this work as:
 Gaussian 16, Revision C.01,
 M. J. Frisch, G. W. Trucks, H. B. Schlegel, G. E. Scuseria, 
 M. A. Robb, J. R. Cheeseman, G. Scalmani, V. Barone, 
 G. A. Petersson, H. Nakatsuji, X. Li, M. Caricato, A. V. Marenich, 
 J. Bloino, B. G. Janesko, R. Gomperts, B. Mennucci, H. P. Hratchian, 
 J. V. Ortiz, A. F. Izmaylov, J. L. Sonnenberg, D. Williams-Young, 
 F. Ding, F. Lipparini, F. Egidi, J. Goings, B. Peng, A. Petrone, 
 T. Henderson, D. Ranasinghe, V. G. Zakrzewski, J. Gao, N. Rega, 
 G. Zheng, W. Liang, M. Hada, M. Ehara, K. Toyota, R. Fukuda, 
 J. Hasegawa, M. Ishida, T. Nakajima, Y. Honda, O. Kitao, H. Nakai, 
 T. Vreven, K. Throssell, J. A. Montgomery, Jr., J. E. Peralta, 
 F. Ogliaro, M. J. Bearpark, J. J. Heyd, E. N. Brothers, K. N. Kudin, 
 V. N. Staroverov, T. A. Keith, R. Kobayashi, J. Normand, 
 K. Raghavachari, A. P. Rendell, J. C. Burant, S. S. Iyengar, 
 J. Tomasi, M. Cossi, J. M. Millam, M. Klene, C. Adamo, R. Cammi, 
 J. W. Ochterski, R. L. Martin, K. Morokuma, O. Farkas, 
 J. B. Foresman, and D. J. Fox, Gaussian, Inc., Wallingford CT, 2019.
 
 ******************************************
 Gaussian 16:  ES64L-G16RevC.01  3-Jul-2019
                 8-Sep-2023 
 ******************************************
 %chk=4MR_IRC_O_20.chk
 %mem=32GB
 %nprocshared=32
 Will use up to   32 processors via shared memory.
 ----------------------------------------------------------------------
 # irc=(calcfc,maxpoints=40,stepsize=5) wb97xd/6-311+g(d,p) integral=ul
 trafine
 ----------------------------------------------------------------------
 1/10=4,18=10,26=4,38=1,39=5,42=40,44=3,172=1/1,23;
 2/12=2,17=6,18=5,29=1,40=1/2;
 3/5=4,6=6,7=111,11=2,25=1,30=1,71=2,74=-58,75=-5,140=1/1,2,3;
 4//1;
 5/5=2,38=5/2;
 8/6=4,10=90,11=11/1;
 11/6=1,8=1,9=11,15=111,16=1/1,2,10;
 10/6=1,13=1/2;
 6/7=2,8=2,9=2,10=2,28=1/1;
 7/10=1,25=1/1,2,3,16;
 1/10=4,18=10,26=4,39=5,42=40,44=3/23(2);
 2/29=1/2;
 99/5=20/99;
 2/29=1/2;
 3/5=4,6=6,7=111,11=2,25=1,30=1,71=2,74=-58,75=-5,140=1/1,2,3;
 4/5=5,16=3,69=1/1;
 5/5=2,38=5/2;
 8/6=4,10=90,11=11/1;
 11/6=1,8=1,9=11,15=111,16=1/1,2,10;
 10/6=1,13=1/2;
 7/10=1,25=1/1,2,3,16;
 1/18=10,26=4,39=5,42=40,44=3/23(-8);
 2/29=1/2;
 6/7=2,8=2,9=2,10=2,19=2,28=1/1;
 99/5=20,9=1/99;
 -------------------
 Title Card Required
 -------------------
 Symbolic Z-matrix:
 Charge =  0 Multiplicity = 1
 C                     1.31014   0.61258  -0.12811 
 C                     2.263     0.68419  -1.15834 
 C                     1.52233  -0.16907   1.02305 
 C                     3.29003  -0.23295  -1.11887 
 H                     2.14985   1.37206  -1.98836 
 C                     2.50375  -1.18418   0.98831 
 C                     3.37692  -1.18834  -0.07557 
 H                     4.02035  -0.26085  -1.91962 
 H                     2.61818  -1.88313   1.80993 
 H                     4.17663  -1.92081  -0.10732 
 C                     0.64352   0.2897    2.03171 
 H                     0.25667  -0.36266   2.81195 
 H                     0.63573   1.34758   2.2544 
 C                    -0.01253   1.14654  -0.03354 
 O                    -0.17448   2.43645  -0.40624 
 H                    -1.08514   2.58819  -0.68041 
 C                    -1.23082   0.30482  -0.07524 
 C                    -1.18828  -0.99701  -0.58911 
 C                    -2.47012   0.83594   0.30162 
 C                    -2.34724  -1.7514   -0.68561 
 H                    -0.2393   -1.40884  -0.91221 
 C                    -3.62976   0.08035   0.18847 
 H                    -2.52647   1.82728   0.74238 
 C                    -3.57422  -1.2188   -0.30082 
 H                    -2.29474  -2.75934  -1.08203 
 H                    -4.5778    0.50476   0.49962 
 H                    -4.47849  -1.81005  -0.38614 
 
 IRC-IRC-IRC-IRC-IRC-IRC-IRC-IRC-IRC-IRC-IRC-IRC-IRC-IRC-IRC-IRC-IRC-IRC
 ------------------------------------------------------------------------
 INPUT DATA FOR L123
 ------------------------------------------------------------------------
 GENERAL PARAMETERS:
 Follow reaction path in both directions.
 Maximum points per path      =  40
 Step size                    =   0.050 bohr
 Integration scheme           = HPC                                 
    Redo corrector integration= Yes                                 
    DWI Weight Power          =  2
    DWI will use Hessian update vectors when possible.
    Max correction cycles     =  20
 Initial Hessian              = CalcFC
 Hessian evaluation           = All updating
 Hessian updating method      = Bofill                              
 ------------------------------------------------------------------------
 IRC-IRC-IRC-IRC-IRC-IRC-IRC-IRC-IRC-IRC-IRC-IRC-IRC-IRC-IRC-IRC-IRC-IRC
                          Input orientation:                          
 ---------------------------------------------------------------------
 Center     Atomic      Atomic             Coordinates (Angstroms)
 Number     Number       Type             X           Y           Z
 ---------------------------------------------------------------------
      1          6           0        1.310137    0.612583   -0.128109
      2          6           0        2.263002    0.684192   -1.158336
      3          6           0        1.522333   -0.169068    1.023053
      4          6           0        3.290027   -0.232954   -1.118871
      5          1           0        2.149845    1.372057   -1.988355
      6          6           0        2.503752   -1.184179    0.988310
      7          6           0        3.376917   -1.188341   -0.075569
      8          1           0        4.020348   -0.260845   -1.919619
      9          1           0        2.618179   -1.883133    1.809929
     10          1           0        4.176630   -1.920811   -0.107324
     11          6           0        0.643516    0.289699    2.031706
     12          1           0        0.256670   -0.362662    2.811948
     13          1           0        0.635734    1.347578    2.254397
     14          6           0       -0.012527    1.146542   -0.033544
     15          8           0       -0.174475    2.436448   -0.406242
     16          1           0       -1.085140    2.588191   -0.680409
     17          6           0       -1.230823    0.304819   -0.075236
     18          6           0       -1.188275   -0.997011   -0.589110
     19          6           0       -2.470121    0.835943    0.301615
     20          6           0       -2.347242   -1.751402   -0.685610
     21          1           0       -0.239299   -1.408837   -0.912211
     22          6           0       -3.629756    0.080353    0.188474
     23          1           0       -2.526470    1.827275    0.742382
     24          6           0       -3.574218   -1.218803   -0.300817
     25          1           0       -2.294742   -2.759343   -1.082025
     26          1           0       -4.577797    0.504759    0.499624
     27          1           0       -4.478489   -1.810051   -0.386143
 ---------------------------------------------------------------------
                    Distance matrix (angstroms):
                    1          2          3          4          5
     1  C    0.000000
     2  C    1.405150   0.000000
     3  C    1.407544   2.456644   0.000000
     4  C    2.369917   1.377496   2.777888   0.000000
     5  H    2.177711   1.083925   3.440555   2.152226   0.000000
     6  C    2.428881   2.856022   1.412388   2.441981   3.939559
     7  C    2.741836   2.433017   2.384401   1.417319   3.423462
     8  H    3.364168   2.135629   3.861065   1.084133   2.483923
     9  H    3.419878   3.940546   2.181300   3.428169   5.024197
    10  H    3.825611   3.398917   3.375152   2.158276   4.299897
    11  C    2.283296   3.599268   1.414273   4.147689   4.427349
    12  H    3.271824   4.569948   2.199892   4.966832   5.443921
    13  H    2.582900   3.838597   2.145339   4.574089   4.504895
    14  C    1.429509   2.580108   2.281013   3.740028   2.923696
    15  O    2.368104   3.094728   3.422098   4.431289   3.006405
    16  H    3.153635   3.881196   4.159709   5.224289   3.695245
    17  C    2.560077   3.677478   3.001779   4.670809   4.028391
    18  C    3.007553   3.880950   3.260668   4.573797   4.325900
    19  C    3.811155   4.955496   4.179738   6.028236   5.184155
    20  C    4.390405   5.235450   4.516295   5.854246   5.628226
    21  H    2.664903   3.271522   2.895794   3.725795   3.820925
    22  C    4.978558   6.074793   5.225204   7.049164   6.309586
    23  H    4.117376   5.278107   4.522938   6.445188   5.434342
    24  C    5.219265   6.199183   5.369302   6.982762   6.505785
    25  H    5.027424   5.712862   5.070596   6.129734   6.135491
    26  H    5.922283   7.041133   6.159514   8.066375   7.225193
    27  H    6.280440   7.229470   6.378756   7.960777   7.525138
                    6          7          8          9         10
     6  C    0.000000
     7  C    1.376326   0.000000
     8  H    3.407148   2.162122   0.000000
     9  H    1.084753   2.147911   4.302026   0.000000
    10  H    2.131094   1.084925   2.462585   2.471042   0.000000
    11  C    2.592580   3.754556   5.226764   2.944432   4.684517
    12  H    3.008309   4.330755   6.046765   2.982046   5.129918
    13  H    3.391498   4.401558   5.609371   3.816429   5.366380
    14  C    3.578841   4.116039   4.669272   4.415647   5.192604
    15  O    4.714511   5.085354   5.211741   5.600813   6.164996
    16  H    5.467682   5.876902   5.976509   6.317364   6.953111
    17  C    4.158761   4.843634   5.594329   4.812047   5.847650
    18  C    4.019247   4.597968   5.426044   4.585814   5.465138
    19  C    5.412195   6.199020   6.947159   5.963152   7.207373
    20  C    5.162935   5.784046   6.655129   5.558819   6.551643
    21  H    3.344664   3.718280   4.525191   3.974944   4.517786
    22  C    6.313375   7.125501   7.942579   6.746932   8.064231
    23  H    5.867919   6.679294   7.369350   6.432278   7.726687
    24  C    6.213273   6.954850   7.824042   6.575893   7.784979
    25  H    5.458294   5.970655   6.842837   5.767836   6.597866
    26  H    7.296551   8.153215   8.964763   7.694218   9.104492
    27  H    7.143705   7.886088   8.773928   7.429049   8.660317
                   11         12         13         14         15
    11  C    0.000000
    12  H    1.088119   0.000000
    13  H    1.081092   1.838334   0.000000
    14  C    2.330200   3.232180   2.386489   0.000000
    15  O    3.349811   4.286916   2.986817   1.352401   0.000000
    16  H    3.953085   4.764929   3.621272   1.909787   0.963070
    17  C    2.820032   3.315720   3.162052   1.481378   2.401932
    18  C    3.446702   3.749328   4.112133   2.507161   3.584672
    19  C    3.603655   3.895358   3.704249   2.499714   2.886636
    20  C    4.527089   4.576229   5.210131   3.778116   4.726209
    21  H    3.511557   3.899978   4.288463   2.711723   3.878972
    22  C    4.658560   4.709903   4.905946   3.777618   4.224197
    23  H    3.751707   4.101804   3.537772   2.717603   2.687435
    24  C    5.050299   5.009789   5.553299   4.283916   4.993018
    25  H    5.255981   5.236106   6.048653   4.643679   5.652297
    26  H    5.445699   5.428751   5.565113   4.640888   4.892981
    27  H    6.040685   5.894442   6.564933   5.367549   6.046296
                   16         17         18         19         20
    16  H    0.000000
    17  C    2.366695   0.000000
    18  C    3.587847   1.400228   0.000000
    19  C    2.439860   1.399989   2.407538   0.000000
    20  C    4.519402   2.418056   1.386226   2.772015   0.000000
    21  H    4.092116   2.149480   1.083767   3.389539   2.147585
    22  C    3.676857   2.423800   2.779601   1.388694   2.400873
    23  H    2.163506   2.159878   3.397091   1.086365   3.857229
    24  C    4.564297   2.804249   2.413510   2.409136   1.391832
    25  H    5.497322   3.396268   2.138469   3.856332   1.084364
    26  H    4.234598   3.401863   3.863873   2.142706   3.386801
    27  H    5.562908   3.888017   3.395252   3.392320   2.152983
                   21         22         23         24         25
    21  H    0.000000
    22  C    3.863210   0.000000
    23  H    4.294328   2.139110   0.000000
    24  C    3.395821   1.389351   3.385946   0.000000
    25  H    2.465269   3.385307   4.941581   2.149560   0.000000
    26  H    4.947494   1.084305   2.452738   2.149079   4.285827
    27  H    4.290507   2.150386   4.279496   1.083772   2.480758
                   26         27
    26  H    0.000000
    27  H    2.480482   0.000000
 Symmetry turned off by external request.
 Stoichiometry    C14H12O
 Framework group  C1[X(C14H12O)]
 Deg. of freedom    75
 Full point group                 C1      NOp   1
 Rotational constants (GHZ):           1.2174621           0.4242433           0.3855828
 Standard basis: 6-311+G(d,p) (5D, 7F)
   402 basis functions,   636 primitive gaussians,   417 cartesian basis functions
    52 alpha electrons       52 beta electrons
       nuclear repulsion energy       911.7117823453 Hartrees.
 NAtoms=   27 NActive=   27 NUniq=   27 SFac= 1.00D+00 NAtFMM=   60 NAOKFM=F Big=F
 Integral buffers will be    131072 words long.
 Raffenetti 2 integral format.
 Two-electron integral symmetry is turned off.
 Nuclear repulsion after empirical dispersion term =      911.6936159981 Hartrees.
 One-electron integrals computed using PRISM.
 NBasis=   402 RedAO= T EigKep=  1.19D-06  NBF=   402
 NBsUse=   401 1.00D-06 EigRej=  8.46D-07 NBFU=   401
 ExpMin= 4.38D-02 ExpMax= 8.59D+03 ExpMxC= 1.30D+03 IAcc=3 IRadAn=         5 AccDes= 0.00D+00
 Harris functional with IExCor= 4639 and IRadAn=       5 diagonalized for initial guess.
 HarFok:  IExCor= 4639 AccDes= 0.00D+00 IRadAn=         5 IDoV= 1 UseB2=F ITyADJ=14
 ICtDFT=  3500011 ScaDFX=  1.000000  1.000000  1.000000  1.000000
 FoFCou: FMM=F IPFlag=           0 FMFlag=      100000 FMFlg1=           0
         NFxFlg=           0 DoJE=T BraDBF=F KetDBF=T FulRan=T
         wScrn=  0.000000 ICntrl=       500 IOpCl=  0 I1Cent=   200000004 NGrid=           0
         NMat0=    1 NMatS0=      1 NMatT0=    0 NMatD0=    1 NMtDS0=    0 NMtDT0=    0
 Symmetry not used in FoFCou.
 Requested convergence on RMS density matrix=1.00D-08 within 128 cycles.
 Requested convergence on MAX density matrix=1.00D-06.
 Requested convergence on             energy=1.00D-06.
 No special actions if energy rises.
 SCF Done:  E(RwB97XD) =  -615.786511685     A.U. after   18 cycles
            NFock= 18  Conv=0.55D-08     -V/T= 2.0041
 DoSCS=F DFT=T ScalE2(SS,OS)=  1.000000  1.000000
 Range of M.O.s used for correlation:     1   401
 NBasis=   402 NAE=    52 NBE=    52 NFC=     0 NFV=     0
 NROrb=    401 NOA=    52 NOB=    52 NVA=   349 NVB=   349

 **** Warning!!: The largest alpha MO coefficient is  0.17425601D+03

 Symmetrizing basis deriv contribution to polar:
 IMax=3 JMax=2 DiffMx= 0.00D+00
 G2DrvN: will do    28 centers at a time, making    1 passes.
 Calling FoFCou, ICntrl=  3107 FMM=F I1Cent=   0 AccDes= 0.00D+00.
 End of G2Drv F.D. properties file   721 does not exist.
 End of G2Drv F.D. properties file   722 does not exist.
 End of G2Drv F.D. properties file   788 does not exist.
          IDoAtm=111111111111111111111111111
          Differentiating once with respect to nuclear coordinates.
 CalDSu exits because no D1Ps are significant.
          There are    84 degrees of freedom in the 1st order CPHF.  IDoFFX=6 NUNeed=     0.
     78 vectors produced by pass  0 Test12= 2.16D-14 1.19D-09 XBig12= 2.29D-01 7.37D-02.
 AX will form    78 AO Fock derivatives at one time.
     78 vectors produced by pass  1 Test12= 2.16D-14 1.19D-09 XBig12= 1.89D-02 4.11D-02.
     78 vectors produced by pass  2 Test12= 2.16D-14 1.19D-09 XBig12= 6.88D-04 3.23D-03.
     78 vectors produced by pass  3 Test12= 2.16D-14 1.19D-09 XBig12= 8.13D-06 3.79D-04.
     78 vectors produced by pass  4 Test12= 2.16D-14 1.19D-09 XBig12= 7.81D-08 2.71D-05.
     78 vectors produced by pass  5 Test12= 2.16D-14 1.19D-09 XBig12= 6.05D-10 2.19D-06.
     78 vectors produced by pass  6 Test12= 2.16D-14 1.19D-09 XBig12= 4.53D-12 1.76D-07.
     45 vectors produced by pass  7 Test12= 2.16D-14 1.19D-09 XBig12= 2.89D-14 2.12D-08.
      1 vectors produced by pass  8 Test12= 2.16D-14 1.19D-09 XBig12= 2.12D-16 2.47D-09.
 InvSVY:  IOpt=1 It=  1 EMax= 8.05D-16
 Solved reduced A of dimension   592 with    84 vectors.
 End of Minotr F.D. properties file   721 does not exist.
 End of Minotr F.D. properties file   722 does not exist.
 End of Minotr F.D. properties file   788 does not exist.

 **********************************************************************

            Population analysis using the SCF Density.

 **********************************************************************

 Alpha  occ. eigenvalues --  -19.30017 -10.38122 -10.31604 -10.29840 -10.29780
 Alpha  occ. eigenvalues --  -10.29564 -10.29318 -10.29308 -10.29240 -10.29207
 Alpha  occ. eigenvalues --  -10.28935 -10.28740 -10.28629 -10.28550 -10.28064
 Alpha  occ. eigenvalues --   -1.19154  -0.98087  -0.96704  -0.90005  -0.86616
 Alpha  occ. eigenvalues --   -0.85876  -0.85369  -0.78342  -0.76055  -0.71640
 Alpha  occ. eigenvalues --   -0.70950  -0.69257  -0.66230  -0.64598  -0.61011
 Alpha  occ. eigenvalues --   -0.58430  -0.56630  -0.56135  -0.54523  -0.53805
 Alpha  occ. eigenvalues --   -0.52026  -0.51651  -0.50697  -0.50179  -0.48983
 Alpha  occ. eigenvalues --   -0.47198  -0.46230  -0.44984  -0.44512  -0.43470
 Alpha  occ. eigenvalues --   -0.42763  -0.42006  -0.36162  -0.34252  -0.33461
 Alpha  occ. eigenvalues --   -0.32496  -0.25337
 Alpha virt. eigenvalues --    0.00182   0.03800   0.04309   0.05428   0.06638
 Alpha virt. eigenvalues --    0.06862   0.06992   0.07840   0.08367   0.08601
 Alpha virt. eigenvalues --    0.09314   0.09437   0.10030   0.10955   0.11062
 Alpha virt. eigenvalues --    0.11842   0.12064   0.12240   0.13538   0.14169
 Alpha virt. eigenvalues --    0.14406   0.15125   0.15406   0.16199   0.16709
 Alpha virt. eigenvalues --    0.17703   0.18089   0.18180   0.18422   0.19402
 Alpha virt. eigenvalues --    0.19678   0.20259   0.20346   0.20903   0.21740
 Alpha virt. eigenvalues --    0.22084   0.22406   0.22664   0.23239   0.23405
 Alpha virt. eigenvalues --    0.23722   0.23946   0.24494   0.25108   0.25480
 Alpha virt. eigenvalues --    0.25691   0.26161   0.26229   0.26519   0.26830
 Alpha virt. eigenvalues --    0.27348   0.27737   0.28053   0.28304   0.28892
 Alpha virt. eigenvalues --    0.29156   0.29722   0.29934   0.30506   0.31064
 Alpha virt. eigenvalues --    0.31178   0.31441   0.31630   0.32008   0.32360
 Alpha virt. eigenvalues --    0.33147   0.33555   0.34139   0.34339   0.35064
 Alpha virt. eigenvalues --    0.35328   0.35666   0.36782   0.37818   0.38020
 Alpha virt. eigenvalues --    0.38656   0.39109   0.39735   0.40083   0.40930
 Alpha virt. eigenvalues --    0.41681   0.42411   0.42641   0.44145   0.45427
 Alpha virt. eigenvalues --    0.46415   0.47720   0.48704   0.50271   0.52006
 Alpha virt. eigenvalues --    0.54677   0.56818   0.57316   0.58818   0.59586
 Alpha virt. eigenvalues --    0.60724   0.61241   0.61735   0.61891   0.62656
 Alpha virt. eigenvalues --    0.62797   0.63596   0.64646   0.65197   0.66049
 Alpha virt. eigenvalues --    0.67016   0.67710   0.69025   0.69333   0.69756
 Alpha virt. eigenvalues --    0.71529   0.71684   0.72239   0.72768   0.73711
 Alpha virt. eigenvalues --    0.74540   0.74948   0.75346   0.76411   0.77442
 Alpha virt. eigenvalues --    0.77839   0.78320   0.79220   0.79269   0.79826
 Alpha virt. eigenvalues --    0.80641   0.81522   0.82101   0.82798   0.83577
 Alpha virt. eigenvalues --    0.83940   0.84403   0.86280   0.86963   0.88067
 Alpha virt. eigenvalues --    0.88554   0.90237   0.91202   0.91706   0.92074
 Alpha virt. eigenvalues --    0.92937   0.93389   0.93887   0.94872   0.95804
 Alpha virt. eigenvalues --    0.96522   0.97233   0.98868   0.99408   1.01803
 Alpha virt. eigenvalues --    1.02327   1.02717   1.05887   1.06542   1.07965
 Alpha virt. eigenvalues --    1.09402   1.10467   1.11509   1.12109   1.14243
 Alpha virt. eigenvalues --    1.14853   1.15868   1.17581   1.18268   1.19843
 Alpha virt. eigenvalues --    1.22058   1.22720   1.24733   1.26027   1.26722
 Alpha virt. eigenvalues --    1.29181   1.33243   1.34317   1.39089   1.40011
 Alpha virt. eigenvalues --    1.40654   1.42934   1.48045   1.48545   1.51207
 Alpha virt. eigenvalues --    1.54349   1.55843   1.57227   1.57517   1.58847
 Alpha virt. eigenvalues --    1.59802   1.61398   1.62556   1.63226   1.64313
 Alpha virt. eigenvalues --    1.65216   1.65502   1.66716   1.66949   1.68407
 Alpha virt. eigenvalues --    1.69937   1.70479   1.72388   1.73674   1.74313
 Alpha virt. eigenvalues --    1.75291   1.76850   1.77437   1.80065   1.81005
 Alpha virt. eigenvalues --    1.82926   1.83060   1.84899   1.85155   1.86887
 Alpha virt. eigenvalues --    1.88071   1.89511   1.90145   1.92008   1.92661
 Alpha virt. eigenvalues --    1.94242   1.95383   1.96741   1.97134   1.98094
 Alpha virt. eigenvalues --    2.00842   2.01958   2.01967   2.02754   2.03557
 Alpha virt. eigenvalues --    2.04343   2.05870   2.06821   2.07102   2.08644
 Alpha virt. eigenvalues --    2.10044   2.11925   2.13849   2.14654   2.16555
 Alpha virt. eigenvalues --    2.17541   2.19382   2.21368   2.22483   2.23979
 Alpha virt. eigenvalues --    2.26377   2.29555   2.31668   2.32450   2.37516
 Alpha virt. eigenvalues --    2.39349   2.41416   2.44109   2.46935   2.47971
 Alpha virt. eigenvalues --    2.49604   2.49782   2.50811   2.51685   2.54120
 Alpha virt. eigenvalues --    2.55107   2.62059   2.65182   2.68097   2.70950
 Alpha virt. eigenvalues --    2.71671   2.72928   2.74470   2.76207   2.77267
 Alpha virt. eigenvalues --    2.78116   2.78995   2.80854   2.81403   2.82483
 Alpha virt. eigenvalues --    2.83592   2.84221   2.84932   2.85776   2.87052
 Alpha virt. eigenvalues --    2.88022   2.89327   2.89428   2.90414   2.91631
 Alpha virt. eigenvalues --    2.93922   2.94203   2.95874   2.96308   2.98387
 Alpha virt. eigenvalues --    3.00659   3.03003   3.03145   3.04074   3.04188
 Alpha virt. eigenvalues --    3.09643   3.14276   3.16444   3.18354   3.19752
 Alpha virt. eigenvalues --    3.21523   3.23827   3.26607   3.31664   3.32578
 Alpha virt. eigenvalues --    3.33606   3.35167   3.44272   3.47541   3.48281
 Alpha virt. eigenvalues --    3.49981   3.54013   3.55942   3.59162   3.61982
 Alpha virt. eigenvalues --    3.65098   3.66968   3.69152   3.73668   3.74286
 Alpha virt. eigenvalues --    3.84097   3.88371   3.99071   3.99701   4.09083
 Alpha virt. eigenvalues --    4.12713   4.13384   4.15479   4.24651   4.26543
 Alpha virt. eigenvalues --    4.28923   4.31120   4.39697   4.51144   4.89451
 Alpha virt. eigenvalues --    4.95063   5.17274   5.53633   5.82132  23.70234
 Alpha virt. eigenvalues --   23.81220  23.98163  24.07705  24.08800  24.09471
 Alpha virt. eigenvalues --   24.10536  24.17718  24.20512  24.22685  24.24032
 Alpha virt. eigenvalues --   24.26103  24.32379  24.33399  50.05371
          Condensed to atoms (all electrons):
               1          2          3          4          5          6
     1  C   18.382155  -7.905107   0.071604   1.337253  -0.068415   2.772251
     2  C   -7.905107  15.160356  -2.721267  -1.669503   0.453327  -2.338559
     3  C    0.071604  -2.721267  16.829142  -0.052457  -0.022990  -2.958362
     4  C    1.337253  -1.669503  -0.052457   6.413392  -0.035440   0.965991
     5  H   -0.068415   0.453327  -0.022990  -0.035440   0.495533  -0.005232
     6  C    2.772251  -2.338559  -2.958362   0.965991  -0.005232  10.698148
     7  C   -1.898386   1.707803   0.681260  -0.219011  -0.006317  -0.656443
     8  H   -0.016578   0.002730   0.006144   0.360327  -0.006181  -0.031398
     9  H    0.012491   0.024623   0.004178  -0.027153   0.000028   0.301311
    10  H    0.025859  -0.036902   0.006203   0.002109  -0.000113  -0.035435
    11  C   -1.215229  -0.370728  -1.241329   0.113214   0.007422  -0.633682
    12  H    0.037276   0.021398  -0.070815  -0.000043   0.000011  -0.023503
    13  H    0.020694  -0.011984   0.042715  -0.001206  -0.000020  -0.006717
    14  C   -2.506452   3.611671  -3.157415  -0.786292   0.039548  -1.906766
    15  O   -0.093832  -0.062046   0.103745  -0.015434  -0.000503   0.000079
    16  H   -0.050496   0.026002  -0.023389  -0.003035   0.000045   0.007399
    17  C   -3.054030   0.371516  -1.953407  -0.198887   0.004468   0.197463
    18  C   -0.836988   0.446717   0.723499  -0.194582  -0.019757  -0.306681
    19  C    0.938332  -0.817982  -0.311017   0.155451   0.014764   0.600348
    20  C   -0.296024   0.549845  -0.240732  -0.012694  -0.001286  -0.274577
    21  H   -0.002320   0.020221  -0.022994  -0.004539  -0.000074  -0.023373
    22  C   -0.373447   0.163416  -0.316645  -0.024225   0.000807  -0.031718
    23  H    0.015398  -0.001998   0.010441   0.000009  -0.000001  -0.000767
    24  C    0.030173  -0.079624   0.051224   0.003002  -0.000012   0.028056
    25  H    0.001774  -0.000708   0.004523   0.000050  -0.000001  -0.000958
    26  H    0.000745  -0.000202   0.000402  -0.000021  -0.000000  -0.000071
    27  H    0.001144   0.000224  -0.000773  -0.000017  -0.000000  -0.000310
               7          8          9         10         11         12
     1  C   -1.898386  -0.016578   0.012491   0.025859  -1.215229   0.037276
     2  C    1.707803   0.002730   0.024623  -0.036902  -0.370728   0.021398
     3  C    0.681260   0.006144   0.004178   0.006203  -1.241329  -0.070815
     4  C   -0.219011   0.360327  -0.027153   0.002109   0.113214  -0.000043
     5  H   -0.006317  -0.006181   0.000028  -0.000113   0.007422   0.000011
     6  C   -0.656443  -0.031398   0.301311  -0.035435  -0.633682  -0.023503
     7  C    6.336247   0.012325   0.011768   0.388428  -0.239947   0.010900
     8  H    0.012325   0.505638  -0.000111  -0.006180   0.001509  -0.000001
     9  H    0.011768  -0.000111   0.504329  -0.006805   0.013537   0.001291
    10  H    0.388428  -0.006180  -0.006805   0.507398   0.007107   0.000001
    11  C   -0.239947   0.001509   0.013537   0.007107   8.482002   0.401777
    12  H    0.010900  -0.000001   0.001291   0.000001   0.401777   0.505511
    13  H    0.005135   0.000001  -0.000149   0.000007   0.357687  -0.027325
    14  C    0.288596   0.022257   0.018772  -0.000378   0.980131   0.040314
    15  O   -0.003328   0.000037   0.000021   0.000003   0.005558  -0.000865
    16  H   -0.000113  -0.000001  -0.000001   0.000000  -0.013889   0.000082
    17  C   -0.261096   0.003036   0.002098   0.002721  -0.264804  -0.065598
    18  C    0.186041  -0.001874  -0.003566  -0.002291  -0.000454  -0.003013
    19  C   -0.136295   0.000238   0.000905   0.000335   0.408352   0.010174
    20  C    0.036634  -0.000408  -0.000861  -0.000414   0.034306   0.007419
    21  H    0.003377  -0.000026   0.000046  -0.000036   0.003547   0.000256
    22  C    0.001344   0.000042   0.000267  -0.000018   0.112288   0.000291
    23  H    0.000380  -0.000000  -0.000000  -0.000000  -0.000193   0.000123
    24  C   -0.003845  -0.000012  -0.000216   0.000010   0.037125   0.001012
    25  H    0.000397  -0.000000  -0.000001   0.000000  -0.001491   0.000005
    26  H    0.000018  -0.000000  -0.000000  -0.000000  -0.000231   0.000003
    27  H    0.000020   0.000000   0.000000   0.000000   0.000086   0.000001
              13         14         15         16         17         18
     1  C    0.020694  -2.506452  -0.093832  -0.050496  -3.054030  -0.836988
     2  C   -0.011984   3.611671  -0.062046   0.026002   0.371516   0.446717
     3  C    0.042715  -3.157415   0.103745  -0.023389  -1.953407   0.723499
     4  C   -0.001206  -0.786292  -0.015434  -0.003035  -0.198887  -0.194582
     5  H   -0.000020   0.039548  -0.000503   0.000045   0.004468  -0.019757
     6  C   -0.006717  -1.906766   0.000079   0.007399   0.197463  -0.306681
     7  C    0.005135   0.288596  -0.003328  -0.000113  -0.261096   0.186041
     8  H    0.000001   0.022257   0.000037  -0.000001   0.003036  -0.001874
     9  H   -0.000149   0.018772   0.000021  -0.000001   0.002098  -0.003566
    10  H    0.000007  -0.000378   0.000003   0.000000   0.002721  -0.002291
    11  C    0.357687   0.980131   0.005558  -0.013889  -0.264804  -0.000454
    12  H   -0.027325   0.040314  -0.000865   0.000082  -0.065598  -0.003013
    13  H    0.464094   0.002542   0.002771   0.000300  -0.038275  -0.030212
    14  C    0.002542  12.319812   0.271329   0.041154  -2.872270  -0.864979
    15  O    0.002771   0.271329   7.763079   0.238629   0.001417   0.126117
    16  H    0.000300   0.041154   0.238629   0.478283  -0.108055  -0.072008
    17  C   -0.038275  -2.872270   0.001417  -0.108055  18.086605   1.203675
    18  C   -0.030212  -0.864979   0.126117  -0.072008   1.203675  13.404777
    19  C    0.028350   0.998825  -0.201877   0.171747  -5.599512  -3.695245
    20  C   -0.003843   0.491549  -0.000798   0.008500  -0.335542  -3.516538
    21  H   -0.000129   0.042423  -0.000868   0.000085   0.007987   0.433375
    22  C   -0.002227  -0.606405   0.006323   0.037740   0.606094  -0.547904
    23  H    0.000507   0.019733   0.008234  -0.001258  -0.069408  -0.017633
    24  C    0.000366   0.071691   0.002049   0.005880  -1.243598   0.283953
    25  H    0.000002   0.007958   0.000035  -0.000006   0.010287  -0.051809
    26  H    0.000003   0.006506   0.000099  -0.000074   0.017645   0.022006
    27  H   -0.000000   0.004473  -0.000014  -0.000004   0.036157  -0.050795
              19         20         21         22         23         24
     1  C    0.938332  -0.296024  -0.002320  -0.373447   0.015398   0.030173
     2  C   -0.817982   0.549845   0.020221   0.163416  -0.001998  -0.079624
     3  C   -0.311017  -0.240732  -0.022994  -0.316645   0.010441   0.051224
     4  C    0.155451  -0.012694  -0.004539  -0.024225   0.000009   0.003002
     5  H    0.014764  -0.001286  -0.000074   0.000807  -0.000001  -0.000012
     6  C    0.600348  -0.274577  -0.023373  -0.031718  -0.000767   0.028056
     7  C   -0.136295   0.036634   0.003377   0.001344   0.000380  -0.003845
     8  H    0.000238  -0.000408  -0.000026   0.000042  -0.000000  -0.000012
     9  H    0.000905  -0.000861   0.000046   0.000267  -0.000000  -0.000216
    10  H    0.000335  -0.000414  -0.000036  -0.000018  -0.000000   0.000010
    11  C    0.408352   0.034306   0.003547   0.112288  -0.000193   0.037125
    12  H    0.010174   0.007419   0.000256   0.000291   0.000123   0.001012
    13  H    0.028350  -0.003843  -0.000129  -0.002227   0.000507   0.000366
    14  C    0.998825   0.491549   0.042423  -0.606405   0.019733   0.071691
    15  O   -0.201877  -0.000798  -0.000868   0.006323   0.008234   0.002049
    16  H    0.171747   0.008500   0.000085   0.037740  -0.001258   0.005880
    17  C   -5.599512  -0.335542   0.007987   0.606094  -0.069408  -1.243598
    18  C   -3.695245  -3.516538   0.433375  -0.547904  -0.017633   0.283953
    19  C   14.807708  -1.331876  -0.009964  -0.988495   0.400173   0.870408
    20  C   -1.331876  10.500129  -0.085775   0.690591  -0.008278  -0.166405
    21  H   -0.009964  -0.085775   0.463964  -0.004366  -0.000148  -0.005272
    22  C   -0.988495   0.690591  -0.004366   7.091958  -0.002890   0.173365
    23  H    0.400173  -0.008278  -0.000148  -0.002890   0.493566   0.002421
    24  C    0.870408  -0.166405  -0.005272   0.173365   0.002421   5.710159
    25  H    0.000911   0.399876  -0.005937  -0.017843   0.000052   0.005037
    26  H   -0.038420  -0.032699   0.000040   0.365670  -0.005848   0.015154
    27  H   -0.060724   0.021177  -0.000170   0.026981  -0.000158   0.381451
              25         26         27
     1  C    0.001774   0.000745   0.001144
     2  C   -0.000708  -0.000202   0.000224
     3  C    0.004523   0.000402  -0.000773
     4  C    0.000050  -0.000021  -0.000017
     5  H   -0.000001  -0.000000  -0.000000
     6  C   -0.000958  -0.000071  -0.000310
     7  C    0.000397   0.000018   0.000020
     8  H   -0.000000  -0.000000   0.000000
     9  H   -0.000001  -0.000000   0.000000
    10  H    0.000000  -0.000000   0.000000
    11  C   -0.001491  -0.000231   0.000086
    12  H    0.000005   0.000003   0.000001
    13  H    0.000002   0.000003  -0.000000
    14  C    0.007958   0.006506   0.004473
    15  O    0.000035   0.000099  -0.000014
    16  H   -0.000006  -0.000074  -0.000004
    17  C    0.010287   0.017645   0.036157
    18  C   -0.051809   0.022006  -0.050795
    19  C    0.000911  -0.038420  -0.060724
    20  C    0.399876  -0.032699   0.021177
    21  H   -0.005937   0.000040  -0.000170
    22  C   -0.017843   0.365670   0.026981
    23  H    0.000052  -0.005848  -0.000158
    24  C    0.005037   0.015154   0.381451
    25  H    0.503049  -0.000136  -0.006313
    26  H   -0.000136   0.505502  -0.006281
    27  H   -0.006313  -0.006281   0.503533
 Mulliken charges:
               1
     1  C    0.670152
     2  C   -0.543238
     3  C    0.558514
     4  C   -0.106258
     5  H    0.150387
     6  C   -0.336494
     7  C   -0.245892
     8  H    0.148486
     9  H    0.143197
    10  H    0.148391
    11  C   -0.983672
    12  H    0.153320
    13  H    0.196914
    14  C   -0.578330
    15  O   -0.149962
    16  H    0.256481
    17  C    1.513314
    18  C   -0.613833
    19  C   -0.215614
    20  C   -0.431276
    21  H    0.190668
    22  C   -0.360995
    23  H    0.157541
    24  C   -0.173550
    25  H    0.151245
    26  H    0.150190
    27  H    0.150312
 Sum of Mulliken charges =  -0.00000
 Mulliken charges with hydrogens summed into heavy atoms:
               1
     1  C    0.670152
     2  C   -0.392851
     3  C    0.558514
     4  C    0.042228
     6  C   -0.193297
     7  C   -0.097501
    11  C   -0.633438
    14  C   -0.578330
    15  O    0.106519
    17  C    1.513314
    18  C   -0.423164
    19  C   -0.058072
    20  C   -0.280030
    22  C   -0.210805
    24  C   -0.023239
 APT charges:
               1
     1  C   -0.242584
     2  C   -0.536623
     3  C   -0.209141
     4  C   -0.517192
     5  H    0.492169
     6  C   -0.218585
     7  C   -0.761717
     8  H    0.816018
     9  H    0.605008
    10  H    0.851620
    11  C   -1.215088
    12  H    0.452559
    13  H    0.443126
    14  C   -0.332148
    15  O   -0.490970
    16  H    0.642273
    17  C   -0.130607
    18  C   -0.673338
    19  C   -0.162484
    20  C   -0.482450
    21  H    0.234462
    22  C   -0.735558
    23  H    0.487313
    24  C   -0.697636
    25  H    0.601072
    26  H    0.854147
    27  H    0.926355
 Sum of APT charges =  -0.00000
 APT charges with hydrogens summed into heavy atoms:
               1
     1  C   -0.242584
     2  C   -0.044454
     3  C   -0.209141
     4  C    0.298827
     6  C    0.386423
     7  C    0.089903
    11  C   -0.319404
    14  C   -0.332148
    15  O    0.151303
    17  C   -0.130607
    18  C   -0.438876
    19  C    0.324829
    20  C    0.118622
    22  C    0.118589
    24  C    0.228718
 Electronic spatial extent (au):  <R**2>=           3078.0949
 Charge=              0.0000 electrons
 Dipole moment (field-independent basis, Debye):
    X=             -1.7632    Y=             -0.3571    Z=             -0.6259  Tot=              1.9048
 Quadrupole moment (field-independent basis, Debye-Ang):
   XX=            -81.2124   YY=            -83.9877   ZZ=            -88.1197
   XY=             -5.6077   XZ=             -2.6802   YZ=             -0.7872
 Traceless Quadrupole moment (field-independent basis, Debye-Ang):
   XX=              3.2275   YY=              0.4522   ZZ=             -3.6798
   XY=             -5.6077   XZ=             -2.6802   YZ=             -0.7872
 Octapole moment (field-independent basis, Debye-Ang**2):
  XXX=            -28.0096  YYY=              3.1120  ZZZ=             -2.4388  XYY=            -16.7554
  XXY=             -9.4997  XXZ=             -8.6320  XZZ=              8.7400  YZZ=              5.3552
  YYZ=             -4.2336  XYZ=             -8.4965
 Hexadecapole moment (field-independent basis, Debye-Ang**3):
 XXXX=          -2792.6086 YYYY=           -776.4479 ZZZZ=           -538.8031 XXXY=            -48.5277
 XXXZ=            -74.6175 YYYX=            -29.6897 YYYZ=             -1.1428 ZZZX=            -23.4977
 ZZZY=            -22.9293 XXYY=           -570.6499 XXZZ=           -598.1586 YYZZ=           -206.6578
 XXYZ=              5.6838 YYXZ=             21.7970 ZZXY=             -6.7654
 N-N= 9.116936159981D+02 E-N=-3.255141852271D+03  KE= 6.132503960035D+02
  Exact polarizability:       0.000       0.000       0.000       0.000       0.000       0.000
 Approx polarizability:     231.152     -23.253     193.824      -8.009      -9.010     187.596
 Calling FoFJK, ICntrl=    100127 FMM=F ISym2X=0 I1Cent= 0 IOpClX= 0 NMat=1 NMatS=1 NMatT=0.
 -------------------------------------------------------------------
 Center     Atomic                   Forces (Hartrees/Bohr)
 Number     Number              X              Y              Z
 -------------------------------------------------------------------
      1        6           0.000000681   -0.000001758    0.000002417
      2        6          -0.000000266    0.000004776   -0.000001788
      3        6           0.000002022    0.000001188   -0.000002894
      4        6          -0.000002994    0.000006335   -0.000002570
      5        1          -0.000002930    0.000005873    0.000001112
      6        6           0.000002358   -0.000000681   -0.000003395
      7        6           0.000000014    0.000003732   -0.000004175
      8        1          -0.000001290    0.000007305   -0.000003620
      9        1           0.000002971   -0.000001141   -0.000005435
     10        1           0.000001698    0.000003911   -0.000006964
     11        6           0.000000974   -0.000002373    0.000000717
     12        1           0.000002731   -0.000004952   -0.000001476
     13        1           0.000000820   -0.000003472    0.000002618
     14        6          -0.000000441   -0.000001012    0.000005216
     15        8          -0.000002711    0.000002499    0.000003065
     16        1          -0.000003129    0.000001012    0.000006479
     17        6          -0.000002113   -0.000000875    0.000001689
     18        6          -0.000002248   -0.000000498   -0.000002199
     19        6           0.000000836   -0.000002050    0.000004685
     20        6           0.000002460   -0.000000559   -0.000002059
     21        1          -0.000000213    0.000001187   -0.000002619
     22        6          -0.000001309   -0.000004848    0.000002830
     23        1          -0.000000763   -0.000003801    0.000005704
     24        6           0.000000891   -0.000001509    0.000001184
     25        1           0.000001353    0.000000175   -0.000003521
     26        1           0.000000037   -0.000004953    0.000004747
     27        1           0.000000561   -0.000003509    0.000000249
 -------------------------------------------------------------------
 Cartesian Forces:  Max     0.000007305 RMS     0.000003065
 IRC-IRC-IRC-IRC-IRC-IRC-IRC-IRC-IRC-IRC-IRC-IRC-IRC-IRC-IRC-IRC-IRC-IRC
          ******** Start new reaction path calculation ********
 Supplied step size of   0.0500 bohr.
    Integration on MW PES will use step size of   0.0824 sqrt(amu)*bohr.
 Point Number:   0          Path Number:   1
 Calculating another point on the path.
 IRC-IRC-IRC-IRC-IRC-IRC-IRC-IRC-IRC-IRC-IRC-IRC-IRC-IRC-IRC-IRC-IRC-IRC
                          Input orientation:                          
 ---------------------------------------------------------------------
 Center     Atomic      Atomic             Coordinates (Angstroms)
 Number     Number       Type             X           Y           Z
 ---------------------------------------------------------------------
      1          6           0        1.302091    0.599763   -0.122324
      2          6           0        2.256765    0.671346   -1.152180
      3          6           0        1.514136   -0.182867    1.029608
      4          6           0        3.282796   -0.246046   -1.113520
      5          1           0        2.143653    1.359241   -1.982209
      6          6           0        2.496445   -1.198847    0.993095
      7          6           0        3.369533   -1.202294   -0.069822
      8          1           0        4.012702   -0.274374   -1.914615
      9          1           0        2.610300   -1.898515    1.814198
     10          1           0        4.169165   -1.934854   -0.101942
     11          6           0        0.640707    0.271334    2.041688
     12          1           0        0.264374   -0.380825    2.827027
     13          1           0        0.614784    1.331222    2.253551
     14          6           0       -0.019428    1.133157   -0.033714
     15          8           0       -0.181709    2.422990   -0.403441
     16          1           0       -1.091992    2.574622   -0.679254
     17          6           0       -1.237520    0.291308   -0.069511
     18          6           0       -1.195080   -1.010783   -0.583557
     19          6           0       -2.476937    0.822313    0.307009
     20          6           0       -2.353879   -1.765207   -0.680158
     21          1           0       -0.246093   -1.422325   -0.906991
     22          6           0       -3.636548    0.066531    0.193823
     23          1           0       -2.533436    1.813762    0.747487
     24          6           0       -3.580971   -1.232583   -0.295444
     25          1           0       -2.301323   -2.773093   -1.076694
     26          1           0       -4.584636    0.490914    0.504851
     27          1           0       -4.485249   -1.823795   -0.380951
 ---------------------------------------------------------------------
                    Distance matrix (angstroms):
                    1          2          3          4          5
     1  C    0.000000
     2  C    1.406104   0.000000
     3  C    1.408694   2.457921   0.000000
     4  C    2.370876   1.376896   2.779415   0.000000
     5  H    2.178120   1.083948   3.441719   2.151560   0.000000
     6  C    2.430152   2.856094   1.413676   2.442132   3.939634
     7  C    2.743079   2.433162   2.385472   1.418182   3.423663
     8  H    3.365090   2.135184   3.862597   1.084121   2.483266
     9  H    3.420953   3.940631   2.181881   3.428475   5.024285
    10  H    3.826853   3.398904   3.376246   2.158938   4.299902
    11  C    2.286535   3.601728   1.411908   4.147729   4.431043
    12  H    3.276749   4.572830   2.198138   4.965577   5.448695
    13  H    2.579187   3.838038   2.144606   4.576377   4.503320
    14  C    1.427856   2.577846   2.283504   3.738029   2.920046
    15  O    2.367456   3.094353   3.423450   4.430662   3.005226
    16  H    3.153074   3.880759   4.161233   5.223363   3.693812
    17  C    2.558820   3.677856   3.000752   4.670328   4.028800
    18  C    3.007067   3.881767   3.259999   4.573517   4.326705
    19  C    3.809843   4.955800   4.178660   6.027754   5.184464
    20  C    4.389804   5.236184   4.515378   5.853867   5.628970
    21  H    2.664848   3.272288   2.895700   3.725499   3.821530
    22  C    4.977393   6.075250   5.224010   7.048700   6.310067
    23  H    4.116022   5.278245   4.522053   6.444743   5.434427
    24  C    5.218405   6.199846   5.368220   6.982392   6.506462
    25  H    5.027084   5.713670   5.069863   6.129414   6.136282
    26  H    5.921043   7.041525   6.158277   8.065899   7.225603
    27  H    6.279636   7.230164   6.377692   7.960432   7.525829
                    6          7          8          9         10
     6  C    0.000000
     7  C    1.375532   0.000000
     8  H    3.407120   2.162860   0.000000
     9  H    1.084762   2.147252   4.302164   0.000000
    10  H    2.130447   1.084936   2.463221   2.470419   0.000000
    11  C    2.589352   3.751872   5.226900   2.939267   4.681071
    12  H    3.002433   4.325339   6.045202   2.971964   5.122622
    13  H    3.395680   4.405156   5.612254   3.821821   5.371146
    14  C    3.580809   4.115907   4.666584   4.418289   5.192461
    15  O    4.715987   5.085795   5.210807   5.602557   6.165372
    16  H    5.469250   5.877219   5.975015   6.319274   6.953303
    17  C    4.158387   4.843117   5.593678   4.811382   5.847143
    18  C    4.018526   4.597422   5.425404   4.584562   5.464520
    19  C    5.412054   6.198568   6.946492   5.962759   7.206932
    20  C    5.161994   5.783324   6.654308   5.557217   6.550818
    21  H    3.343917   3.717798   4.524426   3.973739   4.517221
    22  C    6.312972   7.124928   7.941836   6.746119   8.063632
    23  H    5.868206   6.679044   7.368787   6.432487   7.726481
    24  C    6.212604   6.954231   7.823282   6.574640   7.784293
    25  H    5.457184   5.969909   6.841975   5.765950   6.596969
    26  H    7.296258   8.152669   8.964023   7.693560   9.103932
    27  H    7.143012   7.885473   8.773142   7.427724   8.659623
                   11         12         13         14         15
    11  C    0.000000
    12  H    1.087978   0.000000
    13  H    1.081166   1.839230   0.000000
    14  C    2.342181   3.249081   2.381813   0.000000
    15  O    3.359263   4.300732   2.980934   1.351556   0.000000
    16  H    3.963699   4.782092   3.613927   1.909172   0.963161
    17  C    2.825827   3.331273   3.147867   1.481128   2.402148
    18  C    3.450485   3.762836   4.099972   2.506184   3.584712
    19  C    3.610041   3.913160   3.688733   2.500413   2.887036
    20  C    4.530286   4.590437   5.196872   3.777309   4.726086
    21  H    3.514200   3.910011   4.279270   2.710070   3.878680
    22  C    4.663846   4.727693   4.890373   3.777965   4.224398
    23  H    3.758886   4.119277   3.523118   2.719142   2.688199
    24  C    5.054356   5.026131   5.538486   4.283668   4.992981
    25  H    5.258173   5.248313   6.036523   4.642590   5.652019
    26  H    5.451082   5.446589   5.549598   4.641514   4.893228
    27  H    6.044351   5.910348   6.550197   5.367280   6.046168
                   16         17         18         19         20
    16  H    0.000000
    17  C    2.367803   0.000000
    18  C    3.588163   1.400530   0.000000
    19  C    2.441592   1.399960   2.407593   0.000000
    20  C    4.519565   2.418346   1.386111   2.772165   0.000000
    21  H    4.091821   2.149614   1.083768   3.389522   2.147506
    22  C    3.677982   2.423882   2.779513   1.388782   2.400905
    23  H    2.166162   2.159803   3.397194   1.086363   3.857386
    24  C    4.564771   2.804470   2.413437   2.409240   1.391922
    25  H    5.497135   3.396564   2.138386   3.856477   1.084361
    26  H    4.235859   3.401900   3.863783   2.142747   3.386828
    27  H    5.563205   3.888239   3.395181   3.392417   2.153067
                   21         22         23         24         25
    21  H    0.000000
    22  C    3.863117   0.000000
    23  H    4.294357   2.139210   0.000000
    24  C    3.395792   1.389305   3.386038   0.000000
    25  H    2.465227   3.385336   4.941736   2.149656   0.000000
    26  H    4.947397   1.084302   2.452799   2.149013   4.285854
    27  H    4.290495   2.150347   4.279576   1.083773   2.480879
                   26         27
    26  H    0.000000
    27  H    2.480403   0.000000
 Symmetry turned off by external request.
 Stoichiometry    C14H12O
 Framework group  C1[X(C14H12O)]
 Deg. of freedom    75
 Full point group                 C1      NOp   1
 Rotational constants (GHZ):           1.2164368           0.4242008           0.3856017
 Standard basis: 6-311+G(d,p) (5D, 7F)
   402 basis functions,   636 primitive gaussians,   417 cartesian basis functions
    52 alpha electrons       52 beta electrons
       nuclear repulsion energy       911.6112112660 Hartrees.
 NAtoms=   27 NActive=   27 NUniq=   27 SFac= 1.00D+00 NAtFMM=   60 NAOKFM=F Big=F
 Integral buffers will be    131072 words long.
 Raffenetti 2 integral format.
 Two-electron integral symmetry is turned off.
 Nuclear repulsion after empirical dispersion term =      911.5930487926 Hartrees.
 One-electron integrals computed using PRISM.
 NBasis=   402 RedAO= T EigKep=  1.19D-06  NBF=   402
 NBsUse=   401 1.00D-06 EigRej=  8.61D-07 NBFU=   401
 Initial guess from the checkpoint file:  "4MR_IRC_O_20.chk"
 B after Tr=    -0.012878   -0.026372    0.009937
         Rot=    1.000000   -0.000004   -0.000002   -0.000005 Ang=  -0.00 deg.
 ExpMin= 4.38D-02 ExpMax= 8.59D+03 ExpMxC= 1.30D+03 IAcc=3 IRadAn=         5 AccDes= 0.00D+00
 Harris functional with IExCor= 4639 and IRadAn=       5 diagonalized for initial guess.
 HarFok:  IExCor= 4639 AccDes= 0.00D+00 IRadAn=         5 IDoV= 1 UseB2=F ITyADJ=14
 ICtDFT=  3500011 ScaDFX=  1.000000  1.000000  1.000000  1.000000
 FoFCou: FMM=F IPFlag=           0 FMFlag=      100000 FMFlg1=           0
         NFxFlg=           0 DoJE=T BraDBF=F KetDBF=T FulRan=T
         wScrn=  0.000000 ICntrl=       500 IOpCl=  0 I1Cent=   200000004 NGrid=           0
         NMat0=    1 NMatS0=      1 NMatT0=    0 NMatD0=    1 NMtDS0=    0 NMtDT0=    0
 Symmetry not used in FoFCou.
 Requested convergence on RMS density matrix=1.00D-08 within 128 cycles.
 Requested convergence on MAX density matrix=1.00D-06.
 Requested convergence on             energy=1.00D-06.
 No special actions if energy rises.
 SCF Done:  E(RwB97XD) =  -615.786535606     A.U. after   15 cycles
            NFock= 15  Conv=0.18D-08     -V/T= 2.0041
 DoSCS=F DFT=T ScalE2(SS,OS)=  1.000000  1.000000
 Range of M.O.s used for correlation:     1   401
 NBasis=   402 NAE=    52 NBE=    52 NFC=     0 NFV=     0
 NROrb=    401 NOA=    52 NOB=    52 NVA=   349 NVB=   349

 **** Warning!!: The largest alpha MO coefficient is  0.17200603D+03

 Symmetrizing basis deriv contribution to polar:
 IMax=3 JMax=2 DiffMx= 0.00D+00
 Calling FoFJK, ICntrl=      2127 FMM=F ISym2X=0 I1Cent= 0 IOpClX= 0 NMat=1 NMatS=1 NMatT=0.
 -------------------------------------------------------------------
 Center     Atomic                   Forces (Hartrees/Bohr)
 Number     Number              X              Y              Z
 -------------------------------------------------------------------
      1        6          -0.000210512    0.000180511    0.000071651
      2        6           0.000091063    0.000177482    0.000144809
      3        6          -0.000223476   -0.000000588    0.000220983
      4        6          -0.000068636    0.000141489    0.000009951
      5        1           0.000004383    0.000020554    0.000013481
      6        6          -0.000073036   -0.000114632   -0.000078344
      7        6          -0.000089976   -0.000001088    0.000074265
      8        1          -0.000012661    0.000012764   -0.000007018
      9        1          -0.000011923   -0.000020884   -0.000019553
     10        1          -0.000007503    0.000002046   -0.000005711
     11        6           0.000636235   -0.000585030    0.000780792
     12        1           0.000210955   -0.000027821    0.000099097
     13        1          -0.000194962   -0.000181024   -0.000085336
     14        6          -0.000006892    0.000072722   -0.000849652
     15        8          -0.000098519    0.000114810   -0.000527441
     16        1          -0.000000648    0.000006461   -0.000048264
     17        6           0.000013606    0.000067329    0.000066170
     18        6          -0.000001348    0.000028329    0.000047482
     19        6           0.000001649    0.000044869    0.000027995
     20        6           0.000028361    0.000018380    0.000027941
     21        1           0.000000287    0.000007282   -0.000003396
     22        6           0.000000300    0.000012826    0.000017643
     23        1          -0.000002968    0.000002187    0.000002964
     24        6           0.000011272    0.000023280    0.000018562
     25        1           0.000004225    0.000002544   -0.000002499
     26        1          -0.000000464   -0.000003852    0.000004195
     27        1           0.000001187   -0.000000946   -0.000000765
 -------------------------------------------------------------------
 Cartesian Forces:  Max     0.000849652 RMS     0.000187437
 IRC-IRC-IRC-IRC-IRC-IRC-IRC-IRC-IRC-IRC-IRC-IRC-IRC-IRC-IRC-IRC-IRC-IRC
 Pt  1 Step number   1 out of a maximum of  20
 Modified Bulirsch-Stoer Extrapolation Cycles:
    EPS =    0.000010000000000
      PEZero:  N= 2 I= 1 D=  2.15D-04 Err=  2.76D-04
      PEZero:  N= 3 I= 2 D=  2.15D-04 Err=  1.84D-04
      PEZero:  N= 3 I= 1 D=  4.29D-04 Err=  8.16D-07
 Maximum DWI energy   std dev =  0.000000095 at pt     2
 Maximum DWI gradient std dev =  0.138305859 at pt     2
 CORRECTOR INTEGRATION CONVERGENCE:
   Recorrection delta-x convergence threshold:    0.010000
   Delta-x Convergence Met
 Point Number:   1          Path Number:   1
   CHANGE IN THE REACTION COORDINATE =    0.08238
   NET REACTION COORDINATE UP TO THIS POINT =    0.08238
  # OF POINTS ALONG THE PATH =   1
  # OF STEPS =   1

 Calculating another point on the path.
 IRC-IRC-IRC-IRC-IRC-IRC-IRC-IRC-IRC-IRC-IRC-IRC-IRC-IRC-IRC-IRC-IRC-IRC
                          Input orientation:                          
 ---------------------------------------------------------------------
 Center     Atomic      Atomic             Coordinates (Angstroms)
 Number     Number       Type             X           Y           Z
 ---------------------------------------------------------------------
      1          6           0        1.300818    0.600859   -0.121802
      2          6           0        2.257299    0.672503   -1.151265
      3          6           0        1.512758   -0.182787    1.030897
      4          6           0        3.282357   -0.245110   -1.113468
      5          1           0        2.144190    1.360556   -1.981202
      6          6           0        2.495996   -1.199591    0.992569
      7          6           0        3.368978   -1.202267   -0.069418
      8          1           0        4.011831   -0.273706   -1.914936
      9          1           0        2.609336   -1.900064    1.813059
     10          1           0        4.168558   -1.934872   -0.102048
     11          6           0        0.644737    0.266861    2.046401
     12          1           0        0.279020   -0.385209    2.836630
     13          1           0        0.600639    1.328240    2.247904
     14          6           0       -0.019531    1.133701   -0.039074
     15          8           0       -0.182151    2.423480   -0.405919
     16          1           0       -1.092136    2.575059   -0.683043
     17          6           0       -1.237430    0.291738   -0.069067
     18          6           0       -1.195080   -1.010597   -0.583297
     19          6           0       -2.476956    0.822577    0.307208
     20          6           0       -2.353695   -1.765080   -0.680005
     21          1           0       -0.246086   -1.421796   -0.907157
     22          6           0       -3.636536    0.066586    0.193971
     23          1           0       -2.533610    1.814053    0.747599
     24          6           0       -3.580900   -1.232464   -0.295330
     25          1           0       -2.301059   -2.772878   -1.076753
     26          1           0       -4.584664    0.490817    0.505069
     27          1           0       -4.485154   -1.823700   -0.380987
 ---------------------------------------------------------------------
                    Distance matrix (angstroms):
                    1          2          3          4          5
     1  C    0.000000
     2  C    1.407048   0.000000
     3  C    1.409870   2.459206   0.000000
     4  C    2.371827   1.376295   2.780947   0.000000
     5  H    2.178482   1.083977   3.442870   2.150942   0.000000
     6  C    2.431439   2.856175   1.414962   2.442291   3.939725
     7  C    2.744321   2.433308   2.386542   1.419047   3.423899
     8  H    3.365975   2.134686   3.864138   1.084113   2.482596
     9  H    3.422064   3.940717   2.182498   3.428759   5.024382
    10  H    3.828088   3.398849   3.377372   2.159541   4.299899
    11  C    2.289782   3.604160   1.409572   4.147762   4.434649
    12  H    3.281572   4.575549   2.196305   4.964165   5.453261
    13  H    2.575818   3.837820   2.143892   4.578850   4.502103
    14  C    1.426213   2.575583   2.286020   3.736028   2.916336
    15  O    2.366826   3.093926   3.424877   4.429991   3.003862
    16  H    3.152568   3.880421   4.162785   5.222529   3.692431
    17  C    2.557545   3.678215   2.999771   4.669845   4.029142
    18  C    3.006538   3.882568   3.259337   4.573236   4.327497
    19  C    3.808514   4.956091   4.177595   6.027268   5.184711
    20  C    4.389160   5.236905   4.514454   5.853485   5.629715
    21  H    2.664738   3.273014   2.895640   3.725193   3.822104
    22  C    4.976205   6.075696   5.222821   7.048236   6.310509
    23  H    4.114673   5.278412   4.521142   6.444315   5.434504
    24  C    5.217505   6.200492   5.367127   6.982014   6.507117
    25  H    5.026684   5.714441   5.069118   6.129070   6.137063
    26  H    5.919795   7.041940   6.157012   8.065437   7.226027
    27  H    6.278784   7.230839   6.376595   7.960069   7.526512
                    6          7          8          9         10
     6  C    0.000000
     7  C    1.374744   0.000000
     8  H    3.407140   2.163659   0.000000
     9  H    1.084764   2.146554   4.302322   0.000000
    10  H    2.129856   1.084944   2.463859   2.469822   0.000000
    11  C    2.586157   3.749202   5.227019   2.934223   4.677690
    12  H    2.996458   4.319785   6.043483   2.961900   5.115251
    13  H    3.399732   4.408758   5.615309   3.826996   5.375893
    14  C    3.582794   4.115782   4.663854   4.420980   5.192321
    15  O    4.717508   5.086236   5.209744   5.604399   6.165732
    16  H    5.470864   5.877608   5.973567   6.321245   6.953556
    17  C    4.158077   4.842628   5.593004   4.810821   5.846673
    18  C    4.017849   4.596894   5.424775   4.583367   5.463927
    19  C    5.411943   6.198127   6.945798   5.962442   7.206516
    20  C    5.161084   5.782609   6.653508   5.555651   6.550012
    21  H    3.343254   3.717350   4.523670   3.972625   4.516695
    22  C    6.312599   7.124365   7.941083   6.745373   8.063061
    23  H    5.868475   6.678791   7.368217   6.432710   7.726280
    24  C    6.211959   6.953614   7.822525   6.573432   7.783626
    25  H    5.456103   5.969160   6.841125   5.764096   6.596079
    26  H    7.295950   8.152116   8.963294   7.692904   9.103376
    27  H    7.142312   7.884836   8.772356   7.426402   8.658921
                   11         12         13         14         15
    11  C    0.000000
    12  H    1.087845   0.000000
    13  H    1.081237   1.840094   0.000000
    14  C    2.354117   3.265867   2.377546   0.000000
    15  O    3.368771   4.314572   2.975750   1.350760   0.000000
    16  H    3.974213   4.799099   3.607007   1.908584   0.963248
    17  C    2.831674   3.346782   3.133878   1.480905   2.402375
    18  C    3.454292   3.776238   4.087844   2.505216   3.584742
    19  C    3.616431   3.930918   3.673362   2.501129   2.887485
    20  C    4.533505   4.604558   5.183568   3.776513   4.725968
    21  H    3.516907   3.919973   4.270135   2.708406   3.878335
    22  C    4.669143   4.745454   4.874840   3.778329   4.224641
    23  H    3.765976   4.136628   3.508625   2.720722   2.689120
    24  C    5.058427   5.042419   5.523633   4.283428   4.992961
    25  H    5.260401   5.260450   6.024315   4.641499   5.651719
    26  H    5.456417   5.464340   5.534087   4.642180   4.893588
    27  H    6.048011   5.926185   6.535372   5.367021   6.046073
                   16         17         18         19         20
    16  H    0.000000
    17  C    2.368888   0.000000
    18  C    3.588520   1.400822   0.000000
    19  C    2.443259   1.399928   2.407640   0.000000
    20  C    4.519773   2.418635   1.385997   2.772319   0.000000
    21  H    4.091562   2.149734   1.083771   3.389494   2.147430
    22  C    3.679070   2.423962   2.779420   1.388874   2.400940
    23  H    2.168804   2.159738   3.397292   1.086360   3.857540
    24  C    4.565249   2.804682   2.413356   2.409344   1.392008
    25  H    5.496993   3.396853   2.138299   3.856629   1.084359
    26  H    4.237148   3.401947   3.863685   2.142813   3.386841
    27  H    5.563532   3.888456   3.395093   3.392529   2.153129
                   21         22         23         24         25
    21  H    0.000000
    22  C    3.863018   0.000000
    23  H    4.294380   2.139297   0.000000
    24  C    3.395756   1.389260   3.386116   0.000000
    25  H    2.465177   3.385379   4.941890   2.149765   0.000000
    26  H    4.947295   1.084298   2.452875   2.148925   4.285874
    27  H    4.290464   2.150328   4.279658   1.083777   2.480988
                   26         27
    26  H    0.000000
    27  H    2.480319   0.000000
 Symmetry turned off by external request.
 Stoichiometry    C14H12O
 Framework group  C1[X(C14H12O)]
 Deg. of freedom    75
 Full point group                 C1      NOp   1
 Rotational constants (GHZ):           1.2154051           0.4241569           0.3856195
 Standard basis: 6-311+G(d,p) (5D, 7F)
   402 basis functions,   636 primitive gaussians,   417 cartesian basis functions
    52 alpha electrons       52 beta electrons
       nuclear repulsion energy       911.5091065031 Hartrees.
 NAtoms=   27 NActive=   27 NUniq=   27 SFac= 1.00D+00 NAtFMM=   60 NAOKFM=F Big=F
 Integral buffers will be    131072 words long.
 Raffenetti 2 integral format.
 Two-electron integral symmetry is turned off.
 Nuclear repulsion after empirical dispersion term =      911.4909477345 Hartrees.
 One-electron integrals computed using PRISM.
 NBasis=   402 RedAO= T EigKep=  1.20D-06  NBF=   402
 NBsUse=   401 1.00D-06 EigRej=  8.76D-07 NBFU=   401
 Initial guess from the checkpoint file:  "4MR_IRC_O_20.chk"
 B after Tr=    -0.000013   -0.000049   -0.000002
         Rot=    1.000000   -0.000027   -0.000009   -0.000012 Ang=  -0.00 deg.
 ExpMin= 4.38D-02 ExpMax= 8.59D+03 ExpMxC= 1.30D+03 IAcc=3 IRadAn=         5 AccDes= 0.00D+00
 Harris functional with IExCor= 4639 and IRadAn=       5 diagonalized for initial guess.
 HarFok:  IExCor= 4639 AccDes= 0.00D+00 IRadAn=         5 IDoV= 1 UseB2=F ITyADJ=14
 ICtDFT=  3500011 ScaDFX=  1.000000  1.000000  1.000000  1.000000
 FoFCou: FMM=F IPFlag=           0 FMFlag=      100000 FMFlg1=           0
         NFxFlg=           0 DoJE=T BraDBF=F KetDBF=T FulRan=T
         wScrn=  0.000000 ICntrl=       500 IOpCl=  0 I1Cent=   200000004 NGrid=           0
         NMat0=    1 NMatS0=      1 NMatT0=    0 NMatD0=    1 NMtDS0=    0 NMtDT0=    0
 Symmetry not used in FoFCou.
 Requested convergence on RMS density matrix=1.00D-08 within 128 cycles.
 Requested convergence on MAX density matrix=1.00D-06.
 Requested convergence on             energy=1.00D-06.
 No special actions if energy rises.
 SCF Done:  E(RwB97XD) =  -615.786606247     A.U. after   15 cycles
            NFock= 15  Conv=0.19D-08     -V/T= 2.0041
 DoSCS=F DFT=T ScalE2(SS,OS)=  1.000000  1.000000
 Range of M.O.s used for correlation:     1   401
 NBasis=   402 NAE=    52 NBE=    52 NFC=     0 NFV=     0
 NROrb=    401 NOA=    52 NOB=    52 NVA=   349 NVB=   349

 **** Warning!!: The largest alpha MO coefficient is  0.16954196D+03

 Symmetrizing basis deriv contribution to polar:
 IMax=3 JMax=2 DiffMx= 0.00D+00
 Calling FoFJK, ICntrl=      2127 FMM=F ISym2X=0 I1Cent= 0 IOpClX= 0 NMat=1 NMatS=1 NMatT=0.
 -------------------------------------------------------------------
 Center     Atomic                   Forces (Hartrees/Bohr)
 Number     Number              X              Y              Z
 -------------------------------------------------------------------
      1        6          -0.000422921    0.000357688    0.000134932
      2        6           0.000172100    0.000356841    0.000293161
      3        6          -0.000442995   -0.000014337    0.000433920
      4        6          -0.000131855    0.000287422    0.000017114
      5        1           0.000015704    0.000026903    0.000024937
      6        6          -0.000137169   -0.000226010   -0.000159724
      7        6          -0.000171142    0.000000769    0.000135314
      8        1          -0.000021225    0.000008332   -0.000004450
      9        1          -0.000030048   -0.000039073   -0.000025353
     10        1          -0.000018582   -0.000005792    0.000004874
     11        6           0.001253439   -0.001157724    0.001528618
     12        1           0.000410067   -0.000040676    0.000195405
     13        1          -0.000384931   -0.000353812   -0.000170566
     14        6          -0.000014767    0.000139231   -0.001652861
     15        8          -0.000193785    0.000226395   -0.001042509
     16        1           0.000005532    0.000011104   -0.000108224
     17        6           0.000028143    0.000135288    0.000124996
     18        6           0.000002404    0.000062241    0.000089893
     19        6          -0.000001527    0.000083918    0.000060393
     20        6           0.000054198    0.000037973    0.000050194
     21        1           0.000000445    0.000011863   -0.000001224
     22        6           0.000003398    0.000022479    0.000043336
     23        1          -0.000003650    0.000012949   -0.000006169
     24        6           0.000023908    0.000041018    0.000034307
     25        1           0.000005064    0.000005069    0.000002894
     26        1          -0.000000771    0.000003683   -0.000001434
     27        1           0.000000968    0.000006255   -0.000001774
 -------------------------------------------------------------------
 Cartesian Forces:  Max     0.001652861 RMS     0.000368006
 IRC-IRC-IRC-IRC-IRC-IRC-IRC-IRC-IRC-IRC-IRC-IRC-IRC-IRC-IRC-IRC-IRC-IRC
 Pt  2 Step number   1 out of a maximum of  20
 Modified Bulirsch-Stoer Extrapolation Cycles:
    EPS =    0.000010000000000
      PEZero:  N= 2 I= 1 D=  4.29D-04 Err=  3.48D-06
 Maximum DWI energy   std dev =  0.000000118 at pt    23
 Maximum DWI gradient std dev =  0.093852401 at pt    36
 CORRECTOR INTEGRATION CONVERGENCE:
   Recorrection delta-x convergence threshold:    0.010000
   Delta-x Convergence Met
 Point Number:   2          Path Number:   1
   CHANGE IN THE REACTION COORDINATE =    0.08236
   NET REACTION COORDINATE UP TO THIS POINT =    0.16474
  # OF POINTS ALONG THE PATH =   2
  # OF STEPS =   1

 Calculating another point on the path.
 IRC-IRC-IRC-IRC-IRC-IRC-IRC-IRC-IRC-IRC-IRC-IRC-IRC-IRC-IRC-IRC-IRC-IRC
                          Input orientation:                          
 ---------------------------------------------------------------------
 Center     Atomic      Atomic             Coordinates (Angstroms)
 Number     Number       Type             X           Y           Z
 ---------------------------------------------------------------------
      1          6           0        1.299508    0.601949   -0.121309
      2          6           0        2.257854    0.673649   -1.150333
      3          6           0        1.511346   -0.182755    1.032196
      4          6           0        3.281934   -0.244203   -1.113387
      5          1           0        2.144779    1.361734   -1.980271
      6          6           0        2.495544   -1.200335    0.992073
      7          6           0        3.368424   -1.202267   -0.068974
      8          1           0        4.010987   -0.273243   -1.915204
      9          1           0        2.608285   -1.901573    1.812008
     10          1           0        4.167884   -1.935002   -0.101987
     11          6           0        0.648801    0.262469    2.051072
     12          1           0        0.293784   -0.389274    2.846167
     13          1           0        0.586246    1.324716    2.242338
     14          6           0       -0.019628    1.134225   -0.044390
     15          8           0       -0.182595    2.423996   -0.408416
     16          1           0       -1.092143    2.575426   -0.687325
     17          6           0       -1.237340    0.292172   -0.068652
     18          6           0       -1.195077   -1.010416   -0.583012
     19          6           0       -2.476965    0.822854    0.307389
     20          6           0       -2.353520   -1.764956   -0.679832
     21          1           0       -0.246068   -1.421325   -0.907205
     22          6           0       -3.636518    0.066670    0.194104
     23          1           0       -2.533766    1.814488    0.747402
     24          6           0       -3.580830   -1.232326   -0.295217
     25          1           0       -2.300830   -2.772704   -1.076683
     26          1           0       -4.584700    0.490893    0.505043
     27          1           0       -4.485101   -1.823508   -0.381073
 ---------------------------------------------------------------------
                    Distance matrix (angstroms):
                    1          2          3          4          5
     1  C    0.000000
     2  C    1.407998   0.000000
     3  C    1.411103   2.460516   0.000000
     4  C    2.372806   1.375702   2.782496   0.000000
     5  H    2.178874   1.083994   3.444073   2.150265   0.000000
     6  C    2.432766   2.856259   1.416236   2.442450   3.939805
     7  C    2.745605   2.433467   2.387617   1.419918   3.424100
     8  H    3.366918   2.134269   3.865690   1.084099   2.481958
     9  H    3.423191   3.940817   2.183052   3.429084   5.024479
    10  H    3.829371   3.398868   3.378451   2.160241   4.299927
    11  C    2.293013   3.606538   1.407237   4.147759   4.438249
    12  H    3.286323   4.578143   2.194447   4.962677   5.457720
    13  H    2.572540   3.837757   2.143064   4.581390   4.501202
    14  C    1.424553   2.573357   2.288527   3.734050   2.912740
    15  O    2.366202   3.093533   3.426361   4.429360   3.002632
    16  H    3.151980   3.879899   4.164430   5.221532   3.690857
    17  C    2.556234   3.678579   2.998783   4.669370   4.029514
    18  C    3.005968   3.883382   3.258626   4.572965   4.328286
    19  C    3.807141   4.956383   4.176508   6.026785   5.185007
    20  C    4.388485   5.237646   4.513490   5.853119   5.630455
    21  H    2.664596   3.273783   2.895485   3.724906   3.822700
    22  C    4.974974   6.076147   5.221601   7.047777   6.310982
    23  H    4.113259   5.278498   4.520290   6.443843   5.434517
    24  C    5.216561   6.201145   5.365993   6.981642   6.507776
    25  H    5.026276   5.715275   5.068322   6.128778   6.137873
    26  H    5.918492   7.042316   6.155767   8.064962   7.226412
    27  H    6.277899   7.231528   6.375483   7.959732   7.527185
                    6          7          8          9         10
     6  C    0.000000
     7  C    1.373952   0.000000
     8  H    3.407099   2.164379   0.000000
     9  H    1.084776   2.145911   4.302457   0.000000
    10  H    2.129184   1.084955   2.464511   2.469178   0.000000
    11  C    2.582969   3.746517   5.227104   2.929131   4.674236
    12  H    2.990524   4.314211   6.041665   2.951855   5.107792
    13  H    3.403596   4.412292   5.618494   3.831810   5.380498
    14  C    3.584761   4.115664   4.661197   4.423597   5.192179
    15  O    4.719065   5.086721   5.208803   5.606232   6.166152
    16  H    5.472500   5.877923   5.971980   6.323240   6.953738
    17  C    4.157781   4.842149   5.592350   4.810222   5.846184
    18  C    4.017169   4.596366   5.424136   4.582122   5.463295
    19  C    5.411832   6.197687   6.945132   5.962059   7.206065
    20  C    5.160183   5.781903   6.652691   5.554047   6.549163
    21  H    3.342533   3.716876   4.522905   3.971409   4.516106
    22  C    6.312230   7.123807   7.940343   6.744565   8.062447
    23  H    5.868815   6.678557   7.367624   6.432977   7.726076
    24  C    6.211317   6.953000   7.821756   6.572171   7.782908
    25  H    5.455025   5.968432   6.840281   5.762188   6.595152
    26  H    7.295704   8.151592   8.962551   7.692274   9.102811
    27  H    7.141658   7.884237   8.771567   7.425081   8.658203
                   11         12         13         14         15
    11  C    0.000000
    12  H    1.087650   0.000000
    13  H    1.081141   1.840626   0.000000
    14  C    2.365949   3.282467   2.373287   0.000000
    15  O    3.378239   4.328248   2.970863   1.350031   0.000000
    16  H    3.984906   4.816203   3.600582   1.908067   0.963328
    17  C    2.837541   3.362273   3.119661   1.480698   2.402624
    18  C    3.458109   3.789695   4.075359   2.504252   3.584799
    19  C    3.622827   3.948632   3.657752   2.501841   2.887934
    20  C    4.536763   4.618809   5.169852   3.775724   4.725876
    21  H    3.519567   3.929932   4.260646   2.706762   3.878055
    22  C    4.674466   4.763255   4.858979   3.778684   4.224879
    23  H    3.773202   4.154085   3.494164   2.722239   2.689874
    24  C    5.062535   5.058820   5.508372   4.283181   4.992945
    25  H    5.262646   5.272714   6.011652   4.640432   5.651477
    26  H    5.461860   5.482258   5.518345   4.642805   4.893855
    27  H    6.051742   5.942209   6.520135   5.366749   6.045957
                   16         17         18         19         20
    16  H    0.000000
    17  C    2.370040   0.000000
    18  C    3.588835   1.401102   0.000000
    19  C    2.445137   1.399893   2.407681   0.000000
    20  C    4.519961   2.418920   1.385892   2.772473   0.000000
    21  H    4.091236   2.149852   1.083773   3.389466   2.147355
    22  C    3.680302   2.424035   2.779327   1.388961   2.400980
    23  H    2.171576   2.159655   3.397378   1.086359   3.857708
    24  C    4.565773   2.804883   2.413274   2.409443   1.392090
    25  H    5.496820   3.397146   2.138238   3.856776   1.084353
    26  H    4.238511   3.401974   3.863591   2.142851   3.386879
    27  H    5.563864   3.888658   3.395020   3.392613   2.153213
                   21         22         23         24         25
    21  H    0.000000
    22  C    3.862921   0.000000
    23  H    4.294389   2.139409   0.000000
    24  C    3.395716   1.389218   3.386218   0.000000
    25  H    2.465156   3.385411   4.942052   2.149850   0.000000
    26  H    4.947195   1.084295   2.452952   2.148872   4.285905
    27  H    4.290451   2.150278   4.279741   1.083778   2.481107
                   26         27
    26  H    0.000000
    27  H    2.480236   0.000000
 Symmetry turned off by external request.
 Stoichiometry    C14H12O
 Framework group  C1[X(C14H12O)]
 Deg. of freedom    75
 Full point group                 C1      NOp   1
 Rotational constants (GHZ):           1.2143727           0.4241140           0.3856359
 Standard basis: 6-311+G(d,p) (5D, 7F)
   402 basis functions,   636 primitive gaussians,   417 cartesian basis functions
    52 alpha electrons       52 beta electrons
       nuclear repulsion energy       911.4078197745 Hartrees.
 NAtoms=   27 NActive=   27 NUniq=   27 SFac= 1.00D+00 NAtFMM=   60 NAOKFM=F Big=F
 Integral buffers will be    131072 words long.
 Raffenetti 2 integral format.
 Two-electron integral symmetry is turned off.
 Nuclear repulsion after empirical dispersion term =      911.3896644809 Hartrees.
 One-electron integrals computed using PRISM.
 NBasis=   402 RedAO= T EigKep=  1.20D-06  NBF=   402
 NBsUse=   401 1.00D-06 EigRej=  8.91D-07 NBFU=   401
 Initial guess from the checkpoint file:  "4MR_IRC_O_20.chk"
 B after Tr=    -0.000014   -0.000053   -0.000008
         Rot=    1.000000   -0.000015   -0.000004   -0.000008 Ang=  -0.00 deg.
 ExpMin= 4.38D-02 ExpMax= 8.59D+03 ExpMxC= 1.30D+03 IAcc=3 IRadAn=         5 AccDes= 0.00D+00
 Harris functional with IExCor= 4639 and IRadAn=       5 diagonalized for initial guess.
 HarFok:  IExCor= 4639 AccDes= 0.00D+00 IRadAn=         5 IDoV= 1 UseB2=F ITyADJ=14
 ICtDFT=  3500011 ScaDFX=  1.000000  1.000000  1.000000  1.000000
 FoFCou: FMM=F IPFlag=           0 FMFlag=      100000 FMFlg1=           0
         NFxFlg=           0 DoJE=T BraDBF=F KetDBF=T FulRan=T
         wScrn=  0.000000 ICntrl=       500 IOpCl=  0 I1Cent=   200000004 NGrid=           0
         NMat0=    1 NMatS0=      1 NMatT0=    0 NMatD0=    1 NMtDS0=    0 NMtDT0=    0
 Symmetry not used in FoFCou.
 Requested convergence on RMS density matrix=1.00D-08 within 128 cycles.
 Requested convergence on MAX density matrix=1.00D-06.
 Requested convergence on             energy=1.00D-06.
 No special actions if energy rises.
 SCF Done:  E(RwB97XD) =  -615.786721947     A.U. after   15 cycles
            NFock= 15  Conv=0.19D-08     -V/T= 2.0041
 DoSCS=F DFT=T ScalE2(SS,OS)=  1.000000  1.000000
 Range of M.O.s used for correlation:     1   401
 NBasis=   402 NAE=    52 NBE=    52 NFC=     0 NFV=     0
 NROrb=    401 NOA=    52 NOB=    52 NVA=   349 NVB=   349

 **** Warning!!: The largest alpha MO coefficient is  0.16698156D+03

 Symmetrizing basis deriv contribution to polar:
 IMax=3 JMax=2 DiffMx= 0.00D+00
 Calling FoFJK, ICntrl=      2127 FMM=F ISym2X=0 I1Cent= 0 IOpClX= 0 NMat=1 NMatS=1 NMatT=0.
 -------------------------------------------------------------------
 Center     Atomic                   Forces (Hartrees/Bohr)
[...]
 Alpha  occ. eigenvalues --   -0.52106  -0.51430  -0.50731  -0.49184  -0.48877
 Alpha  occ. eigenvalues --   -0.46352  -0.45598  -0.45081  -0.44042  -0.43341
 Alpha  occ. eigenvalues --   -0.41635  -0.40649  -0.36173  -0.34184  -0.33332
 Alpha  occ. eigenvalues --   -0.32073  -0.31005
 Alpha virt. eigenvalues --    0.03847   0.04208   0.04956   0.05663   0.06141
 Alpha virt. eigenvalues --    0.06624   0.07273   0.07565   0.08366   0.08982
 Alpha virt. eigenvalues --    0.09558   0.09951   0.10672   0.11044   0.11476
 Alpha virt. eigenvalues --    0.11966   0.12283   0.12776   0.13650   0.14438
 Alpha virt. eigenvalues --    0.14847   0.15739   0.16083   0.16259   0.16892
 Alpha virt. eigenvalues --    0.17662   0.18114   0.18397   0.18530   0.19298
 Alpha virt. eigenvalues --    0.19728   0.19893   0.20348   0.21032   0.21762
 Alpha virt. eigenvalues --    0.21941   0.22174   0.22672   0.22888   0.23550
 Alpha virt. eigenvalues --    0.23637   0.24129   0.24278   0.25171   0.25407
 Alpha virt. eigenvalues --    0.25727   0.26057   0.26143   0.26312   0.26646
 Alpha virt. eigenvalues --    0.26893   0.27471   0.28198   0.28444   0.28806
 Alpha virt. eigenvalues --    0.29353   0.29609   0.30180   0.30439   0.30544
 Alpha virt. eigenvalues --    0.30844   0.31361   0.31850   0.32194   0.32467
 Alpha virt. eigenvalues --    0.32849   0.33198   0.33842   0.34581   0.34787
 Alpha virt. eigenvalues --    0.35144   0.36168   0.36318   0.37153   0.37925
 Alpha virt. eigenvalues --    0.38371   0.39201   0.39668   0.40318   0.40922
 Alpha virt. eigenvalues --    0.41729   0.42268   0.43263   0.44407   0.45645
 Alpha virt. eigenvalues --    0.46646   0.47481   0.49627   0.51064   0.52222
 Alpha virt. eigenvalues --    0.54505   0.56207   0.57988   0.58628   0.60019
 Alpha virt. eigenvalues --    0.60306   0.60869   0.61434   0.62028   0.62326
 Alpha virt. eigenvalues --    0.63055   0.63802   0.64805   0.65766   0.66382
 Alpha virt. eigenvalues --    0.67060   0.67501   0.68448   0.69376   0.69904
 Alpha virt. eigenvalues --    0.70356   0.71663   0.72677   0.73309   0.73400
 Alpha virt. eigenvalues --    0.73717   0.75117   0.75793   0.76358   0.77766
 Alpha virt. eigenvalues --    0.78028   0.78550   0.79167   0.79791   0.80131
 Alpha virt. eigenvalues --    0.81261   0.81627   0.82477   0.82730   0.83285
 Alpha virt. eigenvalues --    0.83762   0.84503   0.85649   0.87002   0.87783
 Alpha virt. eigenvalues --    0.89275   0.90399   0.90886   0.91423   0.92149
 Alpha virt. eigenvalues --    0.92431   0.93058   0.93582   0.95756   0.96275
 Alpha virt. eigenvalues --    0.97462   0.98203   1.00015   1.00289   1.02524
 Alpha virt. eigenvalues --    1.02872   1.04171   1.07129   1.08223   1.09477
 Alpha virt. eigenvalues --    1.10083   1.10929   1.12381   1.13993   1.14356
 Alpha virt. eigenvalues --    1.16188   1.17515   1.18919   1.19382   1.20821
 Alpha virt. eigenvalues --    1.22889   1.23835   1.26283   1.28765   1.31082
 Alpha virt. eigenvalues --    1.32551   1.35806   1.36468   1.37483   1.40268
 Alpha virt. eigenvalues --    1.41186   1.43553   1.44805   1.46763   1.50242
 Alpha virt. eigenvalues --    1.54853   1.56640   1.57693   1.58538   1.59376
 Alpha virt. eigenvalues --    1.61290   1.62042   1.63191   1.64338   1.65160
 Alpha virt. eigenvalues --    1.65350   1.65762   1.65847   1.67912   1.69286
 Alpha virt. eigenvalues --    1.70722   1.71766   1.73404   1.73836   1.74446
 Alpha virt. eigenvalues --    1.76483   1.77192   1.79613   1.80211   1.82219
 Alpha virt. eigenvalues --    1.82626   1.84728   1.84942   1.86301   1.86594
 Alpha virt. eigenvalues --    1.88603   1.89758   1.91219   1.91661   1.93485
 Alpha virt. eigenvalues --    1.94727   1.95332   1.97935   1.98264   1.99481
 Alpha virt. eigenvalues --    2.02053   2.02606   2.02736   2.03644   2.04282
 Alpha virt. eigenvalues --    2.04452   2.05661   2.07109   2.08076   2.08543
 Alpha virt. eigenvalues --    2.10283   2.11205   2.13686   2.15253   2.16325
 Alpha virt. eigenvalues --    2.16918   2.18465   2.19268   2.20557   2.26561
 Alpha virt. eigenvalues --    2.28696   2.29228   2.31457   2.35277   2.39214
 Alpha virt. eigenvalues --    2.39935   2.42296   2.45547   2.46951   2.47507
 Alpha virt. eigenvalues --    2.49574   2.50439   2.51177   2.51294   2.54514
 Alpha virt. eigenvalues --    2.54821   2.63971   2.67669   2.68588   2.69996
 Alpha virt. eigenvalues --    2.72080   2.72674   2.73674   2.75361   2.78398
 Alpha virt. eigenvalues --    2.79358   2.79850   2.81149   2.81850   2.82475
 Alpha virt. eigenvalues --    2.83234   2.84227   2.85180   2.85783   2.88188
 Alpha virt. eigenvalues --    2.88633   2.89533   2.90247   2.91665   2.92070
 Alpha virt. eigenvalues --    2.94332   2.94826   2.95423   2.96446   2.97054
 Alpha virt. eigenvalues --    3.00729   3.01743   3.02662   3.03308   3.03638
 Alpha virt. eigenvalues --    3.07389   3.10890   3.14510   3.18931   3.21229
 Alpha virt. eigenvalues --    3.22414   3.25201   3.26256   3.31397   3.32355
 Alpha virt. eigenvalues --    3.32712   3.36655   3.43751   3.47386   3.48471
 Alpha virt. eigenvalues --    3.49632   3.54070   3.54994   3.61540   3.64412
 Alpha virt. eigenvalues --    3.65205   3.67680   3.73697   3.75681   3.80633
 Alpha virt. eigenvalues --    3.85075   3.88322   3.98712   4.05733   4.09325
 Alpha virt. eigenvalues --    4.12920   4.13721   4.15668   4.25422   4.26009
 Alpha virt. eigenvalues --    4.26681   4.31429   4.38389   4.56869   4.91079
 Alpha virt. eigenvalues --    4.95493   5.21775   5.54024   5.81332  23.71571
 Alpha virt. eigenvalues --   23.79067  23.97104  24.06023  24.09484  24.10677
 Alpha virt. eigenvalues --   24.11958  24.12089  24.22058  24.23954  24.26151
 Alpha virt. eigenvalues --   24.27126  24.33843  24.37288  50.09467
          Condensed to atoms (all electrons):
               1          2          3          4          5          6
     1  C   17.117351  -7.381496  -0.640809   1.124534  -0.039110   3.011442
     2  C   -7.381496  14.010549  -0.575107  -1.195871   0.431799  -1.951740
     3  C   -0.640809  -0.575107  16.648705  -0.847016  -0.032347  -6.229461
     4  C    1.124534  -1.195871  -0.847016   6.050311  -0.021553   1.134409
     5  H   -0.039110   0.431799  -0.032347  -0.021553   0.485829  -0.002706
     6  C    3.011442  -1.951740  -6.229461   1.134409  -0.002706  14.342413
     7  C   -2.020809   1.532514   0.722425  -0.099984  -0.002996  -0.442184
     8  H   -0.000139  -0.029899   0.008087   0.371302  -0.005693  -0.033760
     9  H    0.016303   0.013713  -0.001699  -0.022460   0.000027   0.351946
    10  H    0.030370  -0.040567   0.019693   0.003509  -0.000093  -0.051607
    11  C   -1.471730  -0.602897  -0.425117   0.008691   0.003090  -1.029114
    12  H    0.062710   0.020058  -0.101408   0.002416   0.000025  -0.001032
    13  H   -0.035807  -0.025079   0.157130   0.001193   0.000021   0.067876
    14  C   -1.585973   2.369416  -2.569411  -0.457401   0.021960  -2.779572
    15  O   -0.181968   0.061296  -0.042028  -0.006725   0.000465  -0.002944
    16  H   -0.023801   0.004080   0.015886  -0.002856   0.000138   0.018775
    17  C   -2.329715  -0.123474  -0.586053   0.055283   0.025651   0.482506
    18  C   -0.456836   0.012565   0.673307  -0.071344  -0.034862  -0.345898
    19  C    0.783625  -0.592805  -0.326716   0.053733   0.018494   0.488019
    20  C   -0.176486   0.466526  -0.187096  -0.002605  -0.002248  -0.313860
    21  H   -0.018633   0.024008  -0.021061  -0.007732   0.000002  -0.028063
    22  C   -0.443356   0.112192  -0.240828  -0.006177   0.001013  -0.071745
    23  H    0.016455  -0.000368   0.002842  -0.000131   0.000003  -0.000412
    24  C    0.043255  -0.079750   0.038365   0.002288  -0.000154   0.022984
    25  H    0.001661   0.000187   0.001766  -0.000126  -0.000000  -0.000670
    26  H    0.000529  -0.000097  -0.000789  -0.000026  -0.000000  -0.000221
    27  H    0.000744   0.000183  -0.000986  -0.000008   0.000000  -0.000222
               7          8          9         10         11         12
     1  C   -2.020809  -0.000139   0.016303   0.030370  -1.471730   0.062710
     2  C    1.532514  -0.029899   0.013713  -0.040567  -0.602897   0.020058
     3  C    0.722425   0.008087  -0.001699   0.019693  -0.425117  -0.101408
     4  C   -0.099984   0.371302  -0.022460   0.003509   0.008691   0.002416
     5  H   -0.002996  -0.005693   0.000027  -0.000093   0.003090   0.000025
     6  C   -0.442184  -0.033760   0.351946  -0.051607  -1.029114  -0.001032
     7  C    6.043243   0.020941  -0.009429   0.391181   0.015046   0.002836
     8  H    0.020941   0.504719  -0.000102  -0.006731   0.001157  -0.000002
     9  H   -0.009429  -0.000102   0.500023  -0.006198   0.004354   0.000480
    10  H    0.391181  -0.006731  -0.006198   0.506364   0.004720   0.000006
    11  C    0.015046   0.001157   0.004354   0.004720   9.041512   0.399702
    12  H    0.002836  -0.000002   0.000480   0.000006   0.399702   0.499082
    13  H    0.005439  -0.000002  -0.000034   0.000008   0.302122  -0.027864
    14  C    0.090947   0.019762   0.007591   0.000439   0.891444   0.036509
    15  O    0.001902   0.000061   0.000057  -0.000002  -0.055883  -0.000044
    16  H   -0.000585  -0.000002  -0.000002   0.000000   0.008446   0.000192
    17  C   -0.102241   0.003562   0.009371   0.003301  -0.857019  -0.114402
    18  C    0.042656  -0.002642  -0.010166  -0.002793  -0.140371  -0.068761
    19  C   -0.052703   0.000330   0.002615   0.000434   0.748599   0.095917
    20  C    0.004846  -0.000641  -0.001444  -0.000602  -0.000132   0.007102
    21  H    0.005440  -0.000017   0.000053  -0.000040   0.007314   0.000299
    22  C   -0.003738   0.000046   0.000146  -0.000007   0.063086   0.004730
    23  H    0.000248  -0.000000  -0.000000  -0.000000   0.005437   0.000431
    24  C   -0.001413  -0.000018  -0.000210  -0.000002   0.071498   0.003869
    25  H    0.000172   0.000000  -0.000000   0.000000  -0.000779   0.000002
    26  H    0.000010  -0.000000  -0.000000  -0.000000   0.000534   0.000005
    27  H    0.000001   0.000000   0.000000   0.000000   0.000470  -0.000005
              13         14         15         16         17         18
     1  C   -0.035807  -1.585973  -0.181968  -0.023801  -2.329715  -0.456836
     2  C   -0.025079   2.369416   0.061296   0.004080  -0.123474   0.012565
     3  C    0.157130  -2.569411  -0.042028   0.015886  -0.586053   0.673307
     4  C    0.001193  -0.457401  -0.006725  -0.002856   0.055283  -0.071344
     5  H    0.000021   0.021960   0.000465   0.000138   0.025651  -0.034862
     6  C    0.067876  -2.779572  -0.002944   0.018775   0.482506  -0.345898
     7  C    0.005439   0.090947   0.001902  -0.000585  -0.102241   0.042656
     8  H   -0.000002   0.019762   0.000061  -0.000002   0.003562  -0.002642
     9  H   -0.000034   0.007591   0.000057  -0.000002   0.009371  -0.010166
    10  H    0.000008   0.000439  -0.000002   0.000000   0.003301  -0.002793
    11  C    0.302122   0.891444  -0.055883   0.008446  -0.857019  -0.140371
    12  H   -0.027864   0.036509  -0.000044   0.000192  -0.114402  -0.068761
    13  H    0.468129  -0.155755   0.004489   0.000147   0.072663  -0.028592
    14  C   -0.155755  13.103334   0.455932   0.038102  -3.555639  -0.215023
    15  O    0.004489   0.455932   7.839170   0.230898  -0.017065   0.156055
    16  H    0.000147   0.038102   0.230898   0.494367  -0.223593  -0.086613
    17  C    0.072663  -3.555639  -0.017065  -0.223593  18.646066   0.005243
    18  C   -0.028592  -0.215023   0.156055  -0.086613   0.005243  15.973329
    19  C   -0.003596  -0.135507  -0.252706   0.234102  -4.565456  -4.746532
    20  C   -0.003798   1.264229  -0.004424  -0.001533  -1.169949  -4.052390
    21  H   -0.000075   0.031453  -0.000343   0.000078   0.080115   0.396856
    22  C   -0.000547  -0.746324   0.022307   0.035671   0.496030  -0.750140
    23  H    0.000239   0.042100   0.004748   0.003627  -0.088380  -0.044418
    24  C   -0.000506  -0.038607  -0.001283   0.009908  -1.446558   0.465246
    25  H    0.000001   0.006282   0.000057  -0.000001   0.019645  -0.080838
    26  H   -0.000000   0.004208   0.000162  -0.000116   0.010893   0.019814
    27  H   -0.000000   0.006294  -0.000015   0.000000   0.038447  -0.071767
              19         20         21         22         23         24
     1  C    0.783625  -0.176486  -0.018633  -0.443356   0.016455   0.043255
     2  C   -0.592805   0.466526   0.024008   0.112192  -0.000368  -0.079750
     3  C   -0.326716  -0.187096  -0.021061  -0.240828   0.002842   0.038365
     4  C    0.053733  -0.002605  -0.007732  -0.006177  -0.000131   0.002288
     5  H    0.018494  -0.002248   0.000002   0.001013   0.000003  -0.000154
     6  C    0.488019  -0.313860  -0.028063  -0.071745  -0.000412   0.022984
     7  C   -0.052703   0.004846   0.005440  -0.003738   0.000248  -0.001413
     8  H    0.000330  -0.000641  -0.000017   0.000046  -0.000000  -0.000018
     9  H    0.002615  -0.001444   0.000053   0.000146  -0.000000  -0.000210
    10  H    0.000434  -0.000602  -0.000040  -0.000007  -0.000000  -0.000002
    11  C    0.748599  -0.000132   0.007314   0.063086   0.005437   0.071498
    12  H    0.095917   0.007102   0.000299   0.004730   0.000431   0.003869
    13  H   -0.003596  -0.003798  -0.000075  -0.000547   0.000239  -0.000506
    14  C   -0.135507   1.264229   0.031453  -0.746324   0.042100  -0.038607
    15  O   -0.252706  -0.004424  -0.000343   0.022307   0.004748  -0.001283
    16  H    0.234102  -0.001533   0.000078   0.035671   0.003627   0.009908
    17  C   -4.565456  -1.169949   0.080115   0.496030  -0.088380  -1.446558
    18  C   -4.746532  -4.052390   0.396856  -0.750140  -0.044418   0.465246
    19  C   15.971333  -1.865502   0.017590  -0.836255   0.443430   0.935149
    20  C   -1.865502  11.722886  -0.123131   0.583932   0.000157  -0.271274
    21  H    0.017590  -0.123131   0.470209   0.001050  -0.000133  -0.011658
    22  C   -0.836255   0.583932   0.001050   7.555628  -0.021936   0.231417
    23  H    0.443430   0.000157  -0.000133  -0.021936   0.497160  -0.004870
    24  C    0.935149  -0.271274  -0.011658   0.231417  -0.004870   5.816426
    25  H    0.002171   0.419532  -0.005887  -0.015070   0.000051   0.003707
    26  H   -0.040612  -0.030424   0.000042   0.377798  -0.006060   0.014792
    27  H   -0.053198   0.035012  -0.000165   0.028511  -0.000158   0.375357
              25         26         27
     1  C    0.001661   0.000529   0.000744
     2  C    0.000187  -0.000097   0.000183
     3  C    0.001766  -0.000789  -0.000986
     4  C   -0.000126  -0.000026  -0.000008
     5  H   -0.000000  -0.000000   0.000000
     6  C   -0.000670  -0.000221  -0.000222
     7  C    0.000172   0.000010   0.000001
     8  H    0.000000  -0.000000   0.000000
     9  H   -0.000000  -0.000000   0.000000
    10  H    0.000000  -0.000000   0.000000
    11  C   -0.000779   0.000534   0.000470
    12  H    0.000002   0.000005  -0.000005
    13  H    0.000001  -0.000000  -0.000000
    14  C    0.006282   0.004208   0.006294
    15  O    0.000057   0.000162  -0.000015
    16  H   -0.000001  -0.000116   0.000000
    17  C    0.019645   0.010893   0.038447
    18  C   -0.080838   0.019814  -0.071767
    19  C    0.002171  -0.040612  -0.053198
    20  C    0.419532  -0.030424   0.035012
    21  H   -0.005887   0.000042  -0.000165
    22  C   -0.015070   0.377798   0.028511
    23  H    0.000051  -0.006060  -0.000158
    24  C    0.003707   0.014792   0.375357
    25  H    0.503394  -0.000134  -0.006419
    26  H   -0.000134   0.505398  -0.006271
    27  H   -0.006419  -0.006271   0.504478
 Mulliken charges:
               1
     1  C    0.597688
     2  C   -0.459935
     3  C    0.539723
     4  C   -0.065653
     5  H    0.153244
     6  C   -0.635158
     7  C   -0.143762
     8  H    0.149678
     9  H    0.145065
    10  H    0.148616
    11  C   -0.994178
    12  H    0.177148
    13  H    0.202197
    14  C   -0.150792
    15  O   -0.212167
    16  H    0.244683
    17  C    1.230769
    18  C   -0.535083
    19  C   -0.323956
    20  C   -0.296683
    21  H    0.182429
    22  C   -0.377434
    23  H    0.149939
    24  C   -0.177958
    25  H    0.151297
    26  H    0.150565
    27  H    0.149718
 Sum of Mulliken charges =  -0.00000
 Mulliken charges with hydrogens summed into heavy atoms:
               1
     1  C    0.597688
     2  C   -0.306691
     3  C    0.539723
     4  C    0.084026
     6  C   -0.490093
     7  C    0.004854
    11  C   -0.614834
    14  C   -0.150792
    15  O    0.032516
    17  C    1.230769
    18  C   -0.352654
    19  C   -0.174017
    20  C   -0.145386
    22  C   -0.226869
    24  C   -0.028241
 APT charges:
               1
     1  C   -0.346955
     2  C   -0.231149
     3  C   -0.397207
     4  C   -0.618932
     5  H    0.495293
     6  C   -0.357717
     7  C   -0.812278
     8  H    0.822751
     9  H    0.618448
    10  H    0.858252
    11  C   -1.213393
    12  H    0.359608
    13  H    0.576842
    14  C    0.012133
    15  O   -0.634493
    16  H    0.624998
    17  C   -0.195385
    18  C   -0.474889
    19  C   -0.281748
    20  C   -0.520683
    21  H    0.230457
    22  C   -0.743474
    23  H    0.478259
    24  C   -0.632940
    25  H    0.603197
    26  H    0.852814
    27  H    0.928188
 Sum of APT charges =  -0.00000
 APT charges with hydrogens summed into heavy atoms:
               1
     1  C   -0.346955
     2  C    0.264145
     3  C   -0.397207
     4  C    0.203819
     6  C    0.260732
     7  C    0.045974
    11  C   -0.276943
    14  C    0.012133
    15  O   -0.009495
    17  C   -0.195385
    18  C   -0.244432
    19  C    0.196510
    20  C    0.082514
    22  C    0.109341
    24  C    0.295249
 Electronic spatial extent (au):  <R**2>=           3060.8426
 Charge=             -0.0000 electrons
 Dipole moment (field-independent basis, Debye):
    X=             -1.3092    Y=             -1.0927    Z=              0.2809  Tot=              1.7283
 Quadrupole moment (field-independent basis, Debye-Ang):
   XX=            -79.4737   YY=            -86.5537   ZZ=            -86.3550
   XY=             -4.9234   XZ=             -2.1754   YZ=              0.2696
 Traceless Quadrupole moment (field-independent basis, Debye-Ang):
   XX=              4.6538   YY=             -2.4262   ZZ=             -2.2275
   XY=             -4.9234   XZ=             -2.1754   YZ=              0.2696
 Octapole moment (field-independent basis, Debye-Ang**2):
  XXX=            -23.3474  YYY=             -1.1062  ZZZ=              1.4278  XYY=            -14.5113
  XXY=             -7.2312  XXZ=             -6.5340  XZZ=             13.8229  YZZ=              7.5999
  YYZ=             -3.2320  XYZ=             -8.5285
 Hexadecapole moment (field-independent basis, Debye-Ang**3):
 XXXX=          -2790.9775 YYYY=           -791.6823 ZZZZ=           -492.1661 XXXY=            -46.1743
 XXXZ=            -63.0203 YYYX=            -27.5840 YYYZ=            -16.7101 ZZZX=             -5.5227
 ZZZY=            -32.9171 XXYY=           -569.4846 XXZZ=           -584.4418 YYZZ=           -202.8163
 XXYZ=              0.4233 YYXZ=             24.6869 ZZXY=             -2.3411
 N-N= 9.167344836904D+02 E-N=-3.265458796777D+03  KE= 6.132106774332D+02
  Exact polarizability:       0.000       0.000       0.000       0.000       0.000       0.000
 Approx polarizability:     197.068     -15.328     181.978     -14.676      -3.768     164.956

 This type of calculation cannot be archived.


 THE PROMISED LAND ALWAYS LIES ON THE OTHER SIDE OF A WILDERNESS.

                         -- HAVELOCK ELLIS
 Job cpu time:       1 days  7 hours 16 minutes 35.5 seconds.
 Elapsed time:       0 days  1 hours  3 minutes 20.2 seconds.
 File lengths (MBytes):  RWF=    389 Int=      0 D2E=      0 Chk=     21 Scr=      1
 Normal termination of Gaussian 16 at Fri Sep  8 10:42:29 2023.
