 Entering Gaussian System, Link 0=g16
 Input=irc_s0_f_oqm.com
 Output=irc_s0_f_oqm.out
 Initial command:
 /share/apps/g16/a.03/g16/l1.exe "/scratch/12209818/Gau-1589368.inp" -scrdir="/scratch/12209818/"
 Entering Link 1 = /share/apps/g16/a.03/g16/l1.exe PID=   1589370.
  
 Copyright (c) 1988,1990,1992,1993,1995,1998,2003,2009,2016,
            Gaussian, Inc.  All Rights Reserved.
  
 This is part of the Gaussian(R) 16 program.  It is based on
 the Gaussian(R) 09 system (copyright 2009, Gaussian, Inc.),
 the Gaussian(R) 03 system (copyright 2003, Gaussian, Inc.),
 the Gaussian(R) 98 system (copyright 1998, Gaussian, Inc.),
 the Gaussian(R) 94 system (copyright 1995, Gaussian, Inc.),
 the Gaussian 92(TM) system (copyright 1992, Gaussian, Inc.),
 the Gaussian 90(TM) system (copyright 1990, Gaussian, Inc.),
 the Gaussian 88(TM) system (copyright 1988, Gaussian, Inc.),
 the Gaussian 86(TM) system (copyright 1986, Carnegie Mellon
 University), and the Gaussian 82(TM) system (copyright 1983,
 Carnegie Mellon University). Gaussian is a federally registered
 trademark of Gaussian, Inc.
  
 This software contains proprietary and confidential information,
 including trade secrets, belonging to Gaussian, Inc.
  
 This software is provided under written license and may be
 used, copied, transmitted, or stored only in accord with that
 written license.
  
 The following legend is applicable only to US Government
 contracts under FAR:
  
                    RESTRICTED RIGHTS LEGEND
  
 Use, reproduction and disclosure by the US Government is
 subject to restrictions as set forth in subparagraphs (a)
 and (c) of the Commercial Computer Software - Restricted
 Rights clause in FAR 52.227-19.
  
 Gaussian, Inc.
 340 Quinnipiac St., Bldg. 40, Wallingford CT 06492
  
  
 ---------------------------------------------------------------
 Warning -- This program may not be used in any manner that
 competes with the business of Gaussian, Inc. or will provide
 assistance to any competitor of Gaussian, Inc.  The licensee
 of this program is prohibited from giving any competitor of
 Gaussian, Inc. access to this program.  By using this program,
 the user acknowledges that Gaussian, Inc. is engaged in the
 business of creating and licensing software in the field of
 computational chemistry and represents and warrants to the
 licensee that it is not a competitor of Gaussian, Inc. and that
 it will not use this program in any manner prohibited above.
 ---------------------------------------------------------------
  

 Cite this work as:
 Gaussian 16, Revision A.03,
 M. J. Frisch, G. W. Trucks, H. B. Schlegel, G. E. Scuseria, 
 M. A. Robb, J. R. Cheeseman, G. Scalmani, V. Barone, 
 G. A. Petersson, H. Nakatsuji, X. Li, M. Caricato, A. V. Marenich, 
 J. Bloino, B. G. Janesko, R. Gomperts, B. Mennucci, H. P. Hratchian, 
 J. V. Ortiz, A. F. Izmaylov, J. L. Sonnenberg, D. Williams-Young, 
 F. Ding, F. Lipparini, F. Egidi, J. Goings, B. Peng, A. Petrone, 
 T. Henderson, D. Ranasinghe, V. G. Zakrzewski, J. Gao, N. Rega, 
 G. Zheng, W. Liang, M. Hada, M. Ehara, K. Toyota, R. Fukuda, 
 J. Hasegawa, M. Ishida, T. Nakajima, Y. Honda, O. Kitao, H. Nakai, 
 T. Vreven, K. Throssell, J. A. Montgomery, Jr., J. E. Peralta, 
 F. Ogliaro, M. J. Bearpark, J. J. Heyd, E. N. Brothers, K. N. Kudin, 
 V. N. Staroverov, T. A. Keith, R. Kobayashi, J. Normand, 
 K. Raghavachari, A. P. Rendell, J. C. Burant, S. S. Iyengar, 
 J. Tomasi, M. Cossi, J. M. Millam, M. Klene, C. Adamo, R. Cammi, 
 J. W. Ochterski, R. L. Martin, K. Morokuma, O. Farkas, 
 J. B. Foresman, and D. J. Fox, Gaussian, Inc., Wallingford CT, 2016.
 
 ******************************************
 Gaussian 16:  ES64L-G16RevA.03 25-Dec-2016
                27-Mar-2024 
 ******************************************
 %chk=irc_s0_f_oqm.chk
 %mem=32GB
 %nprocshared=32
 Will use up to   32 processors via shared memory.
 ----------------------------------------------------------------------
 # irc=(calcall,maxpoints=80,stepsize=5) wb97xd/6-311+g(d,p) integral=s
 uperfine scf=(xqc,maxcycle=512)
 ----------------------------------------------------------------------
 1/10=4,18=10,26=5,38=1,39=5,42=80,44=3,71=1,172=1/1,23;
 2/12=2,17=6,18=5,29=1,40=1/2;
 3/5=4,6=6,7=111,11=2,25=1,30=1,71=2,74=-58,75=-7,140=1/1,2,3;
 4//1;
 5/5=2,7=512,8=3,13=1,38=5/2,8;
 8/6=4,10=90,11=11/1;
 11/6=1,8=1,9=11,15=111,16=1/1,2,10;
 10/6=1,13=1/2;
 6/7=2,8=2,9=2,10=2,18=1,28=1/1;
 7/10=1,25=1/1,2,3,16;
 1/10=4,18=10,26=5,39=5,42=80,44=3,71=1/23(2);
 2/29=1/2;
 99/5=20/99;
 2/29=1/2;
 3/5=4,6=6,7=111,11=2,25=1,30=1,71=2,74=-58,75=-7,140=1/1,2,3;
 4/5=5,16=3,69=1/1;
 5/5=2,7=512,8=3,13=1,38=5/2,8;
 8/6=4,10=90,11=11/1;
 11/6=1,8=1,9=11,15=111,16=1/1,2,10;
 10/6=1,13=1/2;
 7/10=1,25=1/1,2,3,16;
 1/10=4,18=10,26=5,39=5,42=80,44=3,71=1/23(-8);
 2/29=1/2;
 6/7=2,8=2,9=2,10=2,18=1,19=2,28=1/1;
 99/5=20/99;
 -------------------
 Title Card Required
 -------------------
 Symbolic Z-matrix:
 Charge =  0 Multiplicity = 1
 C                    -0.59672   0.98359   0.11956 
 C                    -0.0931   -0.36344   0.04894 
 C                    -0.96166  -1.46199  -0.20259 
 C                    -2.30941  -1.26196  -0.18931 
 C                    -2.82111   0.04241   0.04317 
 C                    -2.00896   1.13113   0.20006 
 O                     0.19148   1.97939   0.01095 
 C                     1.27322  -0.56599   0.23342 
 H                    -0.54504  -2.4528   -0.33871 
 H                    -2.40777   2.13103   0.31587 
 H                     1.19848   1.5742   -0.55617 
 H                    -3.89676   0.18173   0.07011 
 H                    -2.98901  -2.09135  -0.3353 
 F                     1.97733   0.93108  -1.04959 
 F                     1.96088   0.00538   1.15884 
 F                     1.86343  -1.6254   -0.19401 
 
 IRC-IRC-IRC-IRC-IRC-IRC-IRC-IRC-IRC-IRC-IRC-IRC-IRC-IRC-IRC-IRC-IRC-IRC
 ------------------------------------------------------------------------
 INPUT DATA FOR L123
 ------------------------------------------------------------------------
 GENERAL PARAMETERS:
 Follow reaction path in both directions.
 Maximum points per path      =  80
 Step size                    =   0.050 bohr
 Integration scheme           = HPC                                 
    Redo corrector integration= Yes                                 
    DWI Weight Power          =  2
    DWI will use Hessian update vectors when possible.
    Max correction cycles     =  20
 Initial Hessian              = CalcFC
 Hessian evaluation           = Analytic at all predictor steps
                              = Update at all corrector steps
 Hessian updating method      = Bofill                              
 ------------------------------------------------------------------------
 IRC-IRC-IRC-IRC-IRC-IRC-IRC-IRC-IRC-IRC-IRC-IRC-IRC-IRC-IRC-IRC-IRC-IRC
                          Input orientation:                          
 ---------------------------------------------------------------------
 Center     Atomic      Atomic             Coordinates (Angstroms)
 Number     Number       Type             X           Y           Z
 ---------------------------------------------------------------------
      1          6           0       -0.596724    0.983588    0.119562
      2          6           0       -0.093104   -0.363436    0.048942
      3          6           0       -0.961664   -1.461986   -0.202585
      4          6           0       -2.309411   -1.261963   -0.189311
      5          6           0       -2.821107    0.042413    0.043165
      6          6           0       -2.008964    1.131128    0.200055
      7          8           0        0.191481    1.979385    0.010948
      8          6           0        1.273221   -0.565992    0.233419
      9          1           0       -0.545035   -2.452795   -0.338712
     10          1           0       -2.407765    2.131026    0.315872
     11          1           0        1.198480    1.574196   -0.556167
     12          1           0       -3.896757    0.181725    0.070107
     13          1           0       -2.989008   -2.091345   -0.335297
     14          9           0        1.977327    0.931084   -1.049592
     15          9           0        1.960882    0.005380    1.158839
     16          9           0        1.863430   -1.625398   -0.194011
 ---------------------------------------------------------------------
                    Distance matrix (angstroms):
                    1          2          3          4          5
     1  C    0.000000
     2  C    1.439824   0.000000
     3  C    2.493550   1.422840   0.000000
     4  C    2.840985   2.403358   1.362574   0.000000
     5  C    2.416511   2.758033   2.404400   1.420308   0.000000
     6  C    1.422206   2.434559   2.825455   2.443104   1.367293
     7  O    1.274628   2.360348   3.635708   4.098890   3.581701
     8  C    2.431225   1.393522   2.446961   3.674007   4.143655
     9  H    3.467191   2.172542   1.083426   2.133875   3.398882
    10  H    2.152910   3.413392   3.907652   3.431801   2.146515
    11  H    2.007034   2.405985   3.742946   4.525890   4.343114
    12  H    3.396417   3.842580   3.375043   2.161296   1.084968
    13  H    3.922389   3.394049   2.126929   1.082145   2.173556
    14  F    2.827617   2.677544   3.883539   4.891386   5.000882
    15  F    2.928880   2.363632   3.542303   4.653930   4.910552
    16  F    3.599652   2.340854   2.829829   4.188640   4.978226
                    6          7          8          9         10
     6  C    0.000000
     7  O    2.365853   0.000000
     8  C    3.695141   2.774635   0.000000
     9  H    3.908691   4.506544   2.682054   0.000000
    10  H    1.082706   2.621460   4.564029   4.990958   0.000000
    11  H    3.325038   1.224681   2.282419   4.393608   3.751735
    12  H    2.117077   4.466405   5.226320   4.282741   2.465212
    13  H    3.410487   5.177474   4.562536   2.470559   4.311645
    14  F    4.182362   2.326570   2.093590   4.279988   4.746934
    15  F    4.236302   2.888794   1.286758   3.816399   4.930927
    16  F    4.769608   3.978930   1.285840   2.550731   5.710850
                   11         12         13         14         15
    11  H    0.000000
    12  H    5.319082   0.000000
    13  H    5.569563   2.480969   0.000000
    14  F    1.124128   6.026618   5.857455   0.000000
    15  F    2.446157   5.960568   5.579436   2.394654   0.000000
    16  F    3.287966   6.042781   4.876805   2.698257   2.121117
                   16
    16  F    0.000000
 Symmetry turned off by external request.
 Stoichiometry    C7H5F3O
 Framework group  C1[X(C7H5F3O)]
 Deg. of freedom    42
 Full point group                 C1      NOp   1
 Rotational constants (GHZ):           1.8439330           0.9402065           0.7103224
 Standard basis: 6-311+G(d,p) (5D, 7F)
   272 basis functions,   436 primitive gaussians,   283 cartesian basis functions
    41 alpha electrons       41 beta electrons
       nuclear repulsion energy       632.8107866805 Hartrees.
 NAtoms=   16 NActive=   16 NUniq=   16 SFac= 1.00D+00 NAtFMM=   60 NAOKFM=F Big=F
 Integral buffers will be    131072 words long.
 Raffenetti 2 integral format.
 Two-electron integral symmetry is turned off.
 Nuclear repulsion after empirical dispersion term =      632.8028977567 Hartrees.
 One-electron integrals computed using PRISM.
 NBasis=   272 RedAO= T EigKep=  3.20D-06  NBF=   272
 NBsUse=   272 1.00D-06 EigRej= -1.00D+00 NBFU=   272
 ExpMin= 4.38D-02 ExpMax= 1.14D+04 ExpMxC= 1.72D+03 IAcc=3 IRadAn=         7 AccDes= 0.00D+00
 Harris functional with IExCor= 4639 and IRadAn=       7 diagonalized for initial guess.
 HarFok:  IExCor= 4639 AccDes= 0.00D+00 IRadAn=         7 IDoV= 1 UseB2=F ITyADJ=14
 ICtDFT=  3500011 ScaDFX=  1.000000  1.000000  1.000000  1.000000
 FoFCou: FMM=F IPFlag=           0 FMFlag=      100000 FMFlg1=           0
         NFxFlg=           0 DoJE=T BraDBF=F KetDBF=T FulRan=T
         wScrn=  0.000000 ICntrl=       500 IOpCl=  0 I1Cent=   200000004 NGrid=           0
         NMat0=    1 NMatS0=      1 NMatT0=    0 NMatD0=    1 NMtDS0=    0 NMtDT0=    0
 Symmetry not used in FoFCou.
 Requested convergence on RMS density matrix=1.00D-08 within 128 cycles.
 Requested convergence on MAX density matrix=1.00D-06.
 Requested convergence on             energy=1.00D-06.
 No special actions if energy rises.
 SCF Done:  E(RwB97XD) =  -644.435980393     A.U. after   17 cycles
            NFock= 17  Conv=0.63D-08     -V/T= 2.0031
 QCSCF skips out because SCF is already converged.
 DoSCS=F DFT=T ScalE2(SS,OS)=  1.000000  1.000000
 Range of M.O.s used for correlation:     1   272
 NBasis=   272 NAE=    41 NBE=    41 NFC=     0 NFV=     0
 NROrb=    272 NOA=    41 NOB=    41 NVA=   231 NVB=   231

 **** Warning!!: The largest alpha MO coefficient is  0.14612233D+03

 Symmetrizing basis deriv contribution to polar:
 IMax=3 JMax=2 DiffMx= 0.00D+00
 G2DrvN: will do    17 centers at a time, making    1 passes.
 Calling FoFCou, ICntrl=  3107 FMM=F I1Cent=   0 AccDes= 0.00D+00.
 End of G2Drv F.D. properties file   721 does not exist.
 End of G2Drv F.D. properties file   722 does not exist.
 End of G2Drv F.D. properties file   788 does not exist.
          IDoAtm=1111111111111111
          Differentiating once with respect to nuclear coordinates.
 Keep R1 ints in memory in canonical form, NReq=1414050941.
          There are    51 degrees of freedom in the 1st order CPHF.  IDoFFX=6 NUNeed=     0.
     45 vectors produced by pass  0 Test12= 1.86D-14 1.96D-09 XBig12= 2.06D-01 1.41D-01.
 AX will form    45 AO Fock derivatives at one time.
     45 vectors produced by pass  1 Test12= 1.86D-14 1.96D-09 XBig12= 2.68D-02 3.31D-02.
     45 vectors produced by pass  2 Test12= 1.86D-14 1.96D-09 XBig12= 9.64D-04 5.83D-03.
     45 vectors produced by pass  3 Test12= 1.86D-14 1.96D-09 XBig12= 1.28D-05 4.45D-04.
     45 vectors produced by pass  4 Test12= 1.86D-14 1.96D-09 XBig12= 1.40D-07 4.73D-05.
     45 vectors produced by pass  5 Test12= 1.86D-14 1.96D-09 XBig12= 1.10D-09 3.74D-06.
     45 vectors produced by pass  6 Test12= 1.86D-14 1.96D-09 XBig12= 7.46D-12 2.21D-07.
     26 vectors produced by pass  7 Test12= 1.86D-14 1.96D-09 XBig12= 5.42D-14 2.13D-08.
      9 vectors produced by pass  8 Test12= 1.86D-14 1.96D-09 XBig12= 3.99D-15 8.67D-09.
 InvSVY:  IOpt=1 It=  1 EMax= 4.44D-16
 Solved reduced A of dimension   350 with    51 vectors.
 End of Minotr F.D. properties file   721 does not exist.
 End of Minotr F.D. properties file   722 does not exist.
 End of Minotr F.D. properties file   788 does not exist.

 **********************************************************************

            Population analysis using the SCF density.

 **********************************************************************

 Alpha  occ. eigenvalues --  -24.91723 -24.90725 -24.74008 -19.25826 -10.56658
 Alpha  occ. eigenvalues --  -10.39732 -10.33870 -10.33776 -10.33239 -10.31409
 Alpha  occ. eigenvalues --  -10.31074  -1.48238  -1.41216  -1.22952  -1.16175
 Alpha  occ. eigenvalues --   -0.99821  -0.93171  -0.87398  -0.82945  -0.77285
 Alpha  occ. eigenvalues --   -0.75352  -0.72180  -0.69094  -0.68928  -0.63852
 Alpha  occ. eigenvalues --   -0.61628  -0.60360  -0.59149  -0.58380  -0.56920
 Alpha  occ. eigenvalues --   -0.54789  -0.53808  -0.51515  -0.49075  -0.47637
 Alpha  occ. eigenvalues --   -0.46238  -0.45565  -0.44579  -0.38903  -0.37938
 Alpha  occ. eigenvalues --   -0.32186
 Alpha virt. eigenvalues --   -0.05190   0.03718   0.04837   0.05696   0.06726
 Alpha virt. eigenvalues --    0.07726   0.09165   0.09628   0.10227   0.11175
 Alpha virt. eigenvalues --    0.12595   0.12840   0.13168   0.14302   0.15616
 Alpha virt. eigenvalues --    0.16706   0.17264   0.18205   0.18504   0.19191
 Alpha virt. eigenvalues --    0.19541   0.20142   0.20935   0.21892   0.22348
 Alpha virt. eigenvalues --    0.22744   0.23971   0.24565   0.24941   0.25158
 Alpha virt. eigenvalues --    0.26036   0.27030   0.27253   0.27551   0.28489
 Alpha virt. eigenvalues --    0.29860   0.30191   0.31311   0.31767   0.33500
 Alpha virt. eigenvalues --    0.35143   0.35570   0.36249   0.37560   0.38183
 Alpha virt. eigenvalues --    0.39610   0.40333   0.40778   0.41012   0.42236
 Alpha virt. eigenvalues --    0.43015   0.43591   0.45425   0.46292   0.48048
 Alpha virt. eigenvalues --    0.48775   0.50257   0.50954   0.52667   0.56021
 Alpha virt. eigenvalues --    0.56909   0.57749   0.58723   0.59278   0.59560
 Alpha virt. eigenvalues --    0.59996   0.62415   0.63856   0.64879   0.66155
 Alpha virt. eigenvalues --    0.66456   0.69542   0.70072   0.71236   0.71973
 Alpha virt. eigenvalues --    0.75556   0.75985   0.77104   0.78193   0.79289
 Alpha virt. eigenvalues --    0.80365   0.83050   0.84552   0.87831   0.88317
 Alpha virt. eigenvalues --    0.89343   0.90417   0.91737   0.93288   0.95322
 Alpha virt. eigenvalues --    0.96495   1.00000   1.00998   1.04091   1.07588
 Alpha virt. eigenvalues --    1.11019   1.13803   1.14640   1.15997   1.20839
 Alpha virt. eigenvalues --    1.21822   1.26542   1.29858   1.32535   1.34492
 Alpha virt. eigenvalues --    1.37522   1.41399   1.42376   1.45597   1.47113
 Alpha virt. eigenvalues --    1.48546   1.50013   1.50701   1.52023   1.54029
 Alpha virt. eigenvalues --    1.55515   1.56835   1.58184   1.59169   1.61097
 Alpha virt. eigenvalues --    1.62303   1.63983   1.65538   1.69756   1.71219
 Alpha virt. eigenvalues --    1.72060   1.73956   1.76786   1.79962   1.81702
 Alpha virt. eigenvalues --    1.82729   1.84441   1.85975   1.89935   1.93791
 Alpha virt. eigenvalues --    1.95951   1.98302   1.98762   2.01048   2.02251
 Alpha virt. eigenvalues --    2.04285   2.06516   2.06859   2.08729   2.10777
 Alpha virt. eigenvalues --    2.12655   2.17086   2.18690   2.27956   2.32279
 Alpha virt. eigenvalues --    2.34739   2.36977   2.40002   2.47016   2.47569
 Alpha virt. eigenvalues --    2.53303   2.63878   2.68091   2.72862   2.75513
 Alpha virt. eigenvalues --    2.78248   2.80410   2.80861   2.82193   2.83192
 Alpha virt. eigenvalues --    2.85064   2.88202   2.89529   2.91962   2.96700
 Alpha virt. eigenvalues --    2.98578   3.01200   3.06909   3.14809   3.17403
 Alpha virt. eigenvalues --    3.21514   3.25706   3.27384   3.37502   3.38329
 Alpha virt. eigenvalues --    3.46791   3.52103   3.57795   3.59890   3.62192
 Alpha virt. eigenvalues --    3.69736   3.76329   3.78547   3.79966   3.81596
 Alpha virt. eigenvalues --    3.85120   3.95908   3.98668   4.02207   4.04751
 Alpha virt. eigenvalues --    4.06539   4.08770   4.09868   4.10924   4.11473
 Alpha virt. eigenvalues --    4.20469   4.24094   4.28581   4.37094   4.74694
 Alpha virt. eigenvalues --    4.82231   4.87296   5.01212   5.20327   5.51560
 Alpha virt. eigenvalues --    5.89165   6.36211   6.39871   6.45224   6.47017
 Alpha virt. eigenvalues --    6.52832   6.62190   6.65090   6.84862   6.98193
 Alpha virt. eigenvalues --   23.63178  23.86413  23.99623  24.05419  24.10801
 Alpha virt. eigenvalues --   24.25152  24.30274  50.13798  66.84141  66.87185
 Alpha virt. eigenvalues --   67.02871
          Condensed to atoms (all electrons):
               1          2          3          4          5          6
     1  C   13.352376  -1.694836  -2.561324   0.149786  -0.443205  -2.161151
     2  C   -1.694836  16.838343  -6.150704   1.990388  -1.450956  -0.620261
     3  C   -2.561324  -6.150704  17.931213  -4.357339   1.734111  -0.866560
     4  C    0.149786   1.990388  -4.357339   8.072305  -0.315466   0.614610
     5  C   -0.443205  -1.450956   1.734111  -0.315466   6.072944   0.466227
     6  C   -2.161151  -0.620261  -0.866560   0.614610   0.466227   8.866039
     7  O    0.310036  -0.047917  -0.076750   0.018447  -0.047208  -0.190479
     8  C   -0.408044  -3.642030   0.851789  -0.474071  -0.085272  -0.784586
     9  H   -0.018677  -0.003015   0.370142  -0.022365  -0.010823   0.003132
    10  H    0.006842   0.016913  -0.005223  -0.011723  -0.024259   0.378285
    11  H    0.060603  -0.111177  -0.026364   0.000162   0.008575   0.204384
    12  H   -0.009288   0.028835  -0.025534  -0.018363   0.394572  -0.017716
    13  H    0.001117   0.017218  -0.036838   0.390439  -0.011065  -0.010041
    14  F   -0.131986   0.165770  -0.081813   0.021784  -0.007993  -0.035814
    15  F   -0.172127  -0.078893   0.076758   0.018069  -0.005281   0.023575
    16  F    0.085709  -0.263978  -0.108782   0.061473   0.001400   0.022574
               7          8          9         10         11         12
     1  C    0.310036  -0.408044  -0.018677   0.006842   0.060603  -0.009288
     2  C   -0.047917  -3.642030  -0.003015   0.016913  -0.111177   0.028835
     3  C   -0.076750   0.851789   0.370142  -0.005223  -0.026364  -0.025534
     4  C    0.018447  -0.474071  -0.022365  -0.011723   0.000162  -0.018363
     5  C   -0.047208  -0.085272  -0.010823  -0.024259   0.008575   0.394572
     6  C   -0.190479  -0.784586   0.003132   0.378285   0.204384  -0.017716
     7  O    8.158481   0.128849  -0.000147  -0.004516   0.094385  -0.000303
     8  C    0.128849   9.689913   0.033098   0.009500  -0.120421   0.005007
     9  H   -0.000147   0.033098   0.480566   0.000022   0.000102  -0.000122
    10  H   -0.004516   0.009500   0.000022   0.467480  -0.000419  -0.005867
    11  H    0.094385  -0.120421   0.000102  -0.000419   0.415281   0.000006
    12  H   -0.000303   0.005007  -0.000122  -0.005867   0.000006   0.485830
    13  H    0.000065   0.011954  -0.005653  -0.000082  -0.000003  -0.005288
    14  F   -0.049902   0.133888   0.000100   0.000126   0.187918  -0.000005
    15  F   -0.005498   0.314911  -0.000067  -0.000022   0.013207   0.000005
    16  F    0.000941   0.382502   0.003708  -0.000001   0.000607   0.000002
              13         14         15         16
     1  C    0.001117  -0.131986  -0.172127   0.085709
     2  C    0.017218   0.165770  -0.078893  -0.263978
     3  C   -0.036838  -0.081813   0.076758  -0.108782
     4  C    0.390439   0.021784   0.018069   0.061473
     5  C   -0.011065  -0.007993  -0.005281   0.001400
     6  C   -0.010041  -0.035814   0.023575   0.022574
     7  O    0.000065  -0.049902  -0.005498   0.000941
     8  C    0.011954   0.133888   0.314911   0.382502
     9  H   -0.005653   0.000100  -0.000067   0.003708
    10  H   -0.000082   0.000126  -0.000022  -0.000001
    11  H   -0.000003   0.187918   0.013207   0.000607
    12  H   -0.005288  -0.000005   0.000005   0.000002
    13  H    0.486808   0.000007   0.000020   0.000001
    14  F    0.000007   9.210677  -0.055912  -0.010145
    15  F    0.000020  -0.055912   8.860597  -0.066969
    16  F    0.000001  -0.010145  -0.066969   8.899109
 Mulliken charges:
               1
     1  C   -0.365831
     2  C    1.006300
     3  C   -0.666782
     4  C   -0.138136
     5  C   -0.276302
     6  C    0.107781
     7  O   -0.288484
     8  C   -0.046985
     9  H    0.169999
    10  H    0.172942
    11  H    0.273154
    12  H    0.168230
    13  H    0.161342
    14  F   -0.346701
    15  F    0.077626
    16  F   -0.008154
 Sum of Mulliken charges =  -0.00000
 Mulliken charges with hydrogens summed into heavy atoms:
               1
     1  C   -0.365831
     2  C    1.006300
     3  C   -0.496784
     4  C    0.023206
     5  C   -0.108071
     6  C    0.280724
     7  O   -0.288484
     8  C   -0.046985
    14  F   -0.073547
    15  F    0.077626
    16  F   -0.008154
 APT charges:
               1
     1  C    0.064956
     2  C   -0.219683
     3  C   -0.581761
     4  C   -0.562297
     5  C   -0.545627
     6  C   -0.543847
     7  O   -0.202043
     8  C   -0.295947
     9  H    0.493189
    10  H    0.646489
    11  H    0.126789
    12  H    0.802801
    13  H    0.735559
    14  F   -0.294300
    15  F    0.180616
    16  F    0.195106
 Sum of APT charges =  -0.00000
 APT charges with hydrogens summed into heavy atoms:
               1
     1  C    0.064956
     2  C   -0.219683
     3  C   -0.088572
     4  C    0.173262
     5  C    0.257174
     6  C    0.102642
     7  O   -0.202043
     8  C   -0.295947
    14  F   -0.167511
    15  F    0.180616
    16  F    0.195106
 Electronic spatial extent (au):  <R**2>=           1555.7627
 Charge=             -0.0000 electrons
 Dipole moment (field-independent basis, Debye):
    X=             -3.5572    Y=             -3.3904    Z=              1.4475  Tot=              5.1228
 Quadrupole moment (field-independent basis, Debye-Ang):
   XX=            -57.4295   YY=            -60.7598   ZZ=            -65.1219
   XY=             -3.4097   XZ=              3.7331   YZ=              1.4228
 Traceless Quadrupole moment (field-independent basis, Debye-Ang):
   XX=              3.6743   YY=              0.3439   ZZ=             -4.0182
   XY=             -3.4097   XZ=              3.7331   YZ=              1.4228
 Octapole moment (field-independent basis, Debye-Ang**2):
  XXX=              1.4608  YYY=            -16.9227  ZZZ=              3.5317  XYY=              5.5975
  XXY=             -3.9782  XXZ=              7.7997  XZZ=             15.9352  YZZ=             -0.6907
  YYZ=             -1.0839  XYZ=             -0.3678
 Hexadecapole moment (field-independent basis, Debye-Ang**3):
 XXXX=          -1057.3853 YYYY=           -558.4894 ZZZZ=           -149.6036 XXXY=            -22.1884
 XXXZ=             19.0909 YYYX=             -8.9864 YYYZ=              1.2168 ZZZX=              8.0546
 ZZZY=             -2.9566 XXYY=           -264.1588 XXZZ=           -239.5314 YYZZ=           -121.6949
 XXYZ=             11.2380 YYXZ=              3.5078 ZZXY=             -9.8692
 N-N= 6.328028977567D+02 E-N=-2.783752638694D+03  KE= 6.424615164545D+02
  Exact polarizability:   0.000   0.000   0.000   0.000   0.000   0.000
 Approx polarizability: 134.342   2.171 116.628  -0.779   5.435  64.381
 Calling FoFJK, ICntrl=    100127 FMM=F ISym2X=0 I1Cent= 0 IOpClX= 0 NMat=1 NMatS=1 NMatT=0.
 -------------------------------------------------------------------
 Center     Atomic                   Forces (Hartrees/Bohr)
 Number     Number              X              Y              Z
 -------------------------------------------------------------------
      1        6          -0.000000412    0.000002302    0.000027172
      2        6           0.000005867   -0.000001746    0.000000567
      3        6          -0.000001547   -0.000002009   -0.000003772
      4        6           0.000004373   -0.000001178    0.000000216
      5        6          -0.000003188    0.000002527    0.000000554
      6        6          -0.000003161    0.000002021   -0.000000567
      7        8          -0.000031502   -0.000017624   -0.000042821
      8        6          -0.000017065   -0.000012225    0.000013717
      9        1          -0.000000145    0.000000380   -0.000000094
     10        1           0.000000274   -0.000000462    0.000000384
     11        1           0.000059282    0.000025246    0.000034643
     12        1           0.000000109    0.000000027    0.000000426
     13        1           0.000000046   -0.000000053    0.000000723
     14        9          -0.000016674    0.000001409   -0.000015055
     15        9           0.000000470   -0.000000285   -0.000013868
     16        9           0.000003274    0.000001672   -0.000002226
 -------------------------------------------------------------------
 Cartesian Forces:  Max     0.000059282 RMS     0.000014924
 IRC-IRC-IRC-IRC-IRC-IRC-IRC-IRC-IRC-IRC-IRC-IRC-IRC-IRC-IRC-IRC-IRC-IRC
          ******** Start new reaction path calculation ********
 Supplied step size of   0.0500 bohr.
    Integration on MW PES will use step size of   0.0637 sqrt(amu)*bohr.
 Point Number:   0          Path Number:   1
 Calculating another point on the path.
 IRC-IRC-IRC-IRC-IRC-IRC-IRC-IRC-IRC-IRC-IRC-IRC-IRC-IRC-IRC-IRC-IRC-IRC
                          Input orientation:                          
 ---------------------------------------------------------------------
 Center     Atomic      Atomic             Coordinates (Angstroms)
 Number     Number       Type             X           Y           Z
 ---------------------------------------------------------------------
      1          6           0       -0.686189    0.982349    0.114573
      2          6           0       -0.182576   -0.362759    0.043941
      3          6           0       -1.049908   -1.461294   -0.206623
      4          6           0       -2.398455   -1.261304   -0.193861
      5          6           0       -2.909719    0.042174    0.038561
      6          6           0       -2.096833    1.131505    0.195339
      7          8           0        0.104103    1.980043    0.005690
      8          6           0        1.186919   -0.563210    0.225984
      9          1           0       -0.633245   -2.452074   -0.342893
     10          1           0       -2.495881    2.131385    0.310449
     11          1           0        1.090114    1.584249   -0.547400
     12          1           0       -3.985281    0.181991    0.065450
     13          1           0       -3.077792   -2.090792   -0.340427
     14          9           0        1.887921    0.929396   -1.052973
     15          9           0        1.872032    0.005370    1.154652
     16          9           0        1.774687   -1.624816   -0.198765
 ---------------------------------------------------------------------
                    Distance matrix (angstroms):
                    1          2          3          4          5
     1  C    0.000000
     2  C    1.438030   0.000000
     3  C    2.491355   1.421910   0.000000
     4  C    2.839184   2.402927   1.363356   0.000000
     5  C    2.415324   2.757047   2.404044   1.419319   0.000000
     6  C    1.420804   2.433131   2.824931   2.442947   1.368212
     7  O    1.277423   2.360586   3.635879   4.099872   3.583230
     8  C    2.430987   1.396007   2.448898   3.676754   4.145366
     9  H    3.465161   2.172092   1.083430   2.134505   3.398398
    10  H    2.152588   3.412208   3.907115   3.431350   2.147088
    11  H    1.988906   2.400055   3.737801   4.515781   4.326662
    12  H    3.395143   3.841586   3.375030   2.160639   1.084946
    13  H    3.920584   3.393540   2.127553   1.082141   2.172884
    14  F    2.827015   2.675788   3.881050   4.889813   4.999596
    15  F    2.929291   2.364447   3.541455   4.654032   4.910413
    16  F    3.598805   2.341489   2.829335   4.188947   4.977834
                    6          7          8          9         10
     6  C    0.000000
     7  O    2.366453   0.000000
     8  C    3.695406   2.772932   0.000000
     9  H    3.908174   4.506534   2.684107   0.000000
    10  H    1.082705   2.622155   4.564098   4.990427   0.000000
    11  H    3.303523   1.197823   2.284529   4.393597   3.727549
    12  H    2.117708   4.467619   5.228074   4.282662   2.465456
    13  H    3.410648   5.178411   4.565313   2.471100   4.311501
    14  F    4.180598   2.325217   2.086865   4.277246   4.745674
    15  F    4.235605   2.888775   1.286502   3.815506   4.930647
    16  F    4.768783   3.978399   1.285648   2.550150   5.710175
                   11         12         13         14         15
    11  H    0.000000
    12  H    5.301089   0.000000
    13  H    5.560593   2.480689   0.000000
    14  F    1.149318   6.025280   5.855558   0.000000
    15  F    2.449743   5.960342   5.579418   2.393258   0.000000
    16  F    3.299740   6.042482   4.876858   2.695643   2.121019
                   16
    16  F    0.000000
 Symmetry turned off by external request.
 Stoichiometry    C7H5F3O
 Framework group  C1[X(C7H5F3O)]
 Deg. of freedom    42
 Full point group                 C1      NOp   1
 Rotational constants (GHZ):           1.8452785           0.9404281           0.7105200
 Standard basis: 6-311+G(d,p) (5D, 7F)
   272 basis functions,   436 primitive gaussians,   283 cartesian basis functions
    41 alpha electrons       41 beta electrons
       nuclear repulsion energy       632.9016020865 Hartrees.
 NAtoms=   16 NActive=   16 NUniq=   16 SFac= 1.00D+00 NAtFMM=   60 NAOKFM=F Big=F
 Integral buffers will be    131072 words long.
 Raffenetti 2 integral format.
 Two-electron integral symmetry is turned off.
 Nuclear repulsion after empirical dispersion term =      632.8937137970 Hartrees.
 One-electron integrals computed using PRISM.
 NBasis=   272 RedAO= T EigKep=  3.18D-06  NBF=   272
 NBsUse=   272 1.00D-06 EigRej= -1.00D+00 NBFU=   272
 Initial guess from the checkpoint file:  "irc_s0_f_oqm.chk"
 B after Tr=    -0.167726    0.000678   -0.008655
         Rot=    1.000000   -0.000044    0.000005   -0.000030 Ang=  -0.01 deg.
 ExpMin= 4.38D-02 ExpMax= 1.14D+04 ExpMxC= 1.72D+03 IAcc=3 IRadAn=         5 AccDes= 0.00D+00
 Harris functional with IExCor= 4639 and IRadAn=       5 diagonalized for initial guess.
 HarFok:  IExCor= 4639 AccDes= 0.00D+00 IRadAn=         5 IDoV= 1 UseB2=F ITyADJ=14
 ICtDFT=  3500011 ScaDFX=  1.000000  1.000000  1.000000  1.000000
 FoFCou: FMM=F IPFlag=           0 FMFlag=      100000 FMFlg1=           0
         NFxFlg=           0 DoJE=T BraDBF=F KetDBF=T FulRan=T
         wScrn=  0.000000 ICntrl=       500 IOpCl=  0 I1Cent=   200000004 NGrid=           0
         NMat0=    1 NMatS0=      1 NMatT0=    0 NMatD0=    1 NMtDS0=    0 NMtDT0=    0
 Symmetry not used in FoFCou.
 Requested convergence on RMS density matrix=1.00D-08 within 128 cycles.
 Requested convergence on MAX density matrix=1.00D-06.
 Requested convergence on             energy=1.00D-06.
 No special actions if energy rises.
 SCF Done:  E(RwB97XD) =  -644.436045752     A.U. after   14 cycles
            NFock= 14  Conv=0.54D-08     -V/T= 2.0031
 QCSCF skips out because SCF is already converged.
 DoSCS=F DFT=T ScalE2(SS,OS)=  1.000000  1.000000
 Range of M.O.s used for correlation:     1   272
 NBasis=   272 NAE=    41 NBE=    41 NFC=     0 NFV=     0
 NROrb=    272 NOA=    41 NOB=    41 NVA=   231 NVB=   231

 **** Warning!!: The largest alpha MO coefficient is  0.14820372D+03

 Symmetrizing basis deriv contribution to polar:
 IMax=3 JMax=2 DiffMx= 0.00D+00
 G2DrvN: will do    17 centers at a time, making    1 passes.
 Calling FoFCou, ICntrl=  3107 FMM=F I1Cent=   0 AccDes= 0.00D+00.
 End of G2Drv F.D. properties file   721 does not exist.
 End of G2Drv F.D. properties file   722 does not exist.
 End of G2Drv F.D. properties file   788 does not exist.
          IDoAtm=1111111111111111
          Differentiating once with respect to nuclear coordinates.
 Keep R1 ints in memory in canonical form, NReq=1414050941.
          There are    51 degrees of freedom in the 1st order CPHF.  IDoFFX=6 NUNeed=     0.
     45 vectors produced by pass  0 Test12= 1.86D-14 1.96D-09 XBig12= 2.06D-01 1.41D-01.
 AX will form    45 AO Fock derivatives at one time.
     45 vectors produced by pass  1 Test12= 1.86D-14 1.96D-09 XBig12= 2.69D-02 3.37D-02.
     45 vectors produced by pass  2 Test12= 1.86D-14 1.96D-09 XBig12= 9.34D-04 5.50D-03.
     45 vectors produced by pass  3 Test12= 1.86D-14 1.96D-09 XBig12= 1.23D-05 4.32D-04.
     45 vectors produced by pass  4 Test12= 1.86D-14 1.96D-09 XBig12= 1.33D-07 4.88D-05.
     45 vectors produced by pass  5 Test12= 1.86D-14 1.96D-09 XBig12= 1.06D-09 3.90D-06.
     45 vectors produced by pass  6 Test12= 1.86D-14 1.96D-09 XBig12= 7.22D-12 2.39D-07.
     26 vectors produced by pass  7 Test12= 1.86D-14 1.96D-09 XBig12= 5.21D-14 2.07D-08.
      8 vectors produced by pass  8 Test12= 1.86D-14 1.96D-09 XBig12= 5.21D-15 1.04D-08.
 InvSVY:  IOpt=1 It=  1 EMax= 5.00D-16
 Solved reduced A of dimension   349 with    51 vectors.
 End of Minotr F.D. properties file   721 does not exist.
 End of Minotr F.D. properties file   722 does not exist.
 End of Minotr F.D. properties file   788 does not exist.
 Calling FoFJK, ICntrl=    100127 FMM=F ISym2X=0 I1Cent= 0 IOpClX= 0 NMat=1 NMatS=1 NMatT=0.
 -------------------------------------------------------------------
 Center     Atomic                   Forces (Hartrees/Bohr)
 Number     Number              X              Y              Z
 -------------------------------------------------------------------
      1        6          -0.000615743   -0.001101525   -0.000212417
      2        6          -0.000592236    0.000272205   -0.000249113
      3        6           0.000297394    0.000294290    0.000430808
      4        6          -0.000281920    0.000274883    0.000069389
      5        6           0.000014653   -0.000373718    0.000031189
      6        6           0.000556753    0.000070040   -0.000057483
      7        8           0.000926656    0.000460023   -0.000464928
      8        6           0.001694281    0.001829708   -0.002026551
      9        1           0.000027067    0.000027037    0.000028079
     10        1           0.000031376    0.000004214   -0.000045893
     11        1          -0.001182562    0.000788024    0.000895112
     12        1           0.000007827   -0.000001398    0.000000519
     13        1          -0.000008476    0.000015997   -0.000028343
     14        9          -0.000557456   -0.002547983    0.001229545
     15        9          -0.000222653   -0.000326259    0.000527685
     16        9          -0.000094962    0.000314463   -0.000127597
 -------------------------------------------------------------------
 Cartesian Forces:  Max     0.002547983 RMS     0.000741851
 IRC-IRC-IRC-IRC-IRC-IRC-IRC-IRC-IRC-IRC-IRC-IRC-IRC-IRC-IRC-IRC-IRC-IRC
 Pt  1 Step number   1 out of a maximum of  20
 Modified Bulirsch-Stoer Extrapolation Cycles:
    EPS =    0.000010000000000
      PEZero:  N= 2 I= 1 D=  1.66D-04 Err=  2.94D-04
      PEZero:  N= 3 I= 2 D=  1.66D-04 Err=  1.96D-04
      PEZero:  N= 3 I= 1 D=  3.32D-04 Err=  2.63D-08
 Maximum DWI energy   std dev =  0.000000424 at pt    47
 Maximum DWI gradient std dev =  0.023872873 at pt    36
 CORRECTOR INTEGRATION CONVERGENCE:
   Recorrection delta-x convergence threshold:    0.010000
   Delta-x Convergence Met
 Point Number:   1          Path Number:   1
   CHANGE IN THE REACTION COORDINATE =    0.06363
   NET REACTION COORDINATE UP TO THIS POINT =    0.06363
  # OF POINTS ALONG THE PATH =   1
  # OF STEPS =   1

 Calculating another point on the path.
 IRC-IRC-IRC-IRC-IRC-IRC-IRC-IRC-IRC-IRC-IRC-IRC-IRC-IRC-IRC-IRC-IRC-IRC
                          Input orientation:                          
 ---------------------------------------------------------------------
 Center     Atomic      Atomic             Coordinates (Angstroms)
 Number     Number       Type             X           Y           Z
 ---------------------------------------------------------------------
      1          6           0       -0.687037    0.980827    0.114293
      2          6           0       -0.183383   -0.362386    0.043622
      3          6           0       -1.049508   -1.460900   -0.206058
      4          6           0       -2.398841   -1.260933   -0.193771
      5          6           0       -2.909705    0.041664    0.038600
      6          6           0       -2.096096    1.131599    0.195263
      7          8           0        0.104991    1.980626    0.005292
      8          6           0        1.189208   -0.560783    0.223280
      9          1           0       -0.632814   -2.451650   -0.342467
     10          1           0       -2.495393    2.131455    0.309722
     11          1           0        1.070732    1.595721   -0.533413
     12          1           0       -3.985179    0.181965    0.065458
     13          1           0       -3.077921   -2.090531   -0.340883
     14          9           0        1.887544    0.927245   -1.051989
     15          9           0        1.871844    0.005103    1.155093
     16          9           0        1.774601   -1.624564   -0.198861
 ---------------------------------------------------------------------
                    Distance matrix (angstroms):
                    1          2          3          4          5
     1  C    0.000000
     2  C    1.436274   0.000000
     3  C    2.489184   1.421001   0.000000
     4  C    2.837369   2.402497   1.364124   0.000000
     5  C    2.414127   2.756104   2.403724   1.418358   0.000000
     6  C    1.419414   2.431760   2.824439   2.442787   1.369109
     7  O    1.280152   2.361003   3.636157   4.100793   3.584561
     8  C    2.430789   1.398444   2.450794   3.679434   4.147063
     9  H    3.463159   2.171653   1.083433   2.135127   3.397950
    10  H    2.152275   3.411076   3.906613   3.430907   2.147647
    11  H    1.971641   2.395820   3.734368   4.507079   4.311168
    12  H    3.393863   3.840630   3.375038   2.160005   1.084919
    13  H    3.918769   3.393034   2.128162   1.082139   2.172225
    14  F    2.826933   2.674369   3.878802   4.888532   4.998723
    15  F    2.929706   2.365244   3.540649   4.654141   4.910306
    16  F    3.598026   2.342135   2.828857   4.189256   4.977492
                    6          7          8          9         10
     6  C    0.000000
     7  O    2.366796   0.000000
     8  C    3.695695   2.771607   0.000000
     9  H    3.907687   4.506702   2.686115   0.000000
    10  H    1.082705   2.622484   4.564197   4.989930   0.000000
    11  H    3.282557   1.170901   2.288477   4.395423   3.703395
    12  H    2.118322   4.468590   5.229804   4.282602   2.465692
    13  H    3.410799   5.179294   4.568019   2.471631   4.311356
    14  F    4.179328   2.324855   2.080435   4.274641   4.744946
    15  F    4.234952   2.889032   1.286272   3.814661   4.930394
    16  F    4.768026   3.978275   1.285504   2.549577   5.709570
                   11         12         13         14         15
    11  H    0.000000
    12  H    5.283898   0.000000
    13  H    5.553093   2.480416   0.000000
    14  F    1.175994   6.024367   5.853929   0.000000
    15  F    2.454159   5.960143   5.579409   2.392029   0.000000
    16  F    3.313245   6.042224   4.876912   2.693012   2.120958
                   16
    16  F    0.000000
 Symmetry turned off by external request.
 Stoichiometry    C7H5F3O
 Framework group  C1[X(C7H5F3O)]
 Deg. of freedom    42
 Full point group                 C1      NOp   1
 Rotational constants (GHZ):           1.8464331           0.9405733           0.7106684
 Standard basis: 6-311+G(d,p) (5D, 7F)
   272 basis functions,   436 primitive gaussians,   283 cartesian basis functions
    41 alpha electrons       41 beta electrons
       nuclear repulsion energy       632.9712045368 Hartrees.
 NAtoms=   16 NActive=   16 NUniq=   16 SFac= 1.00D+00 NAtFMM=   60 NAOKFM=F Big=F
 Integral buffers will be    131072 words long.
 Raffenetti 2 integral format.
 Two-electron integral symmetry is turned off.
 Nuclear repulsion after empirical dispersion term =      632.9633159059 Hartrees.
 One-electron integrals computed using PRISM.
 NBasis=   272 RedAO= T EigKep=  3.16D-06  NBF=   272
 NBsUse=   272 1.00D-06 EigRej= -1.00D+00 NBFU=   272
 Initial guess from the checkpoint file:  "irc_s0_f_oqm.chk"
 B after Tr=    -0.000204    0.000174    0.000138
         Rot=    1.000000   -0.000048    0.000006   -0.000031 Ang=  -0.01 deg.
 ExpMin= 4.38D-02 ExpMax= 1.14D+04 ExpMxC= 1.72D+03 IAcc=3 IRadAn=         5 AccDes= 0.00D+00
 Harris functional with IExCor= 4639 and IRadAn=       5 diagonalized for initial guess.
 HarFok:  IExCor= 4639 AccDes= 0.00D+00 IRadAn=         5 IDoV= 1 UseB2=F ITyADJ=14
 ICtDFT=  3500011 ScaDFX=  1.000000  1.000000  1.000000  1.000000
 FoFCou: FMM=F IPFlag=           0 FMFlag=      100000 FMFlg1=           0
         NFxFlg=           0 DoJE=T BraDBF=F KetDBF=T FulRan=T
         wScrn=  0.000000 ICntrl=       500 IOpCl=  0 I1Cent=   200000004 NGrid=           0
         NMat0=    1 NMatS0=      1 NMatT0=    0 NMatD0=    1 NMtDS0=    0 NMtDT0=    0
 Symmetry not used in FoFCou.
 Requested convergence on RMS density matrix=1.00D-08 within 128 cycles.
 Requested convergence on MAX density matrix=1.00D-06.
 Requested convergence on             energy=1.00D-06.
 No special actions if energy rises.
 SCF Done:  E(RwB97XD) =  -644.436250223     A.U. after   14 cycles
            NFock= 14  Conv=0.58D-08     -V/T= 2.0031
 QCSCF skips out because SCF is already converged.
 DoSCS=F DFT=T ScalE2(SS,OS)=  1.000000  1.000000
 Range of M.O.s used for correlation:     1   272
 NBasis=   272 NAE=    41 NBE=    41 NFC=     0 NFV=     0
 NROrb=    272 NOA=    41 NOB=    41 NVA=   231 NVB=   231

 **** Warning!!: The largest alpha MO coefficient is  0.14934414D+03

 Symmetrizing basis deriv contribution to polar:
 IMax=3 JMax=2 DiffMx= 0.00D+00
 G2DrvN: will do    17 centers at a time, making    1 passes.
 Calling FoFCou, ICntrl=  3107 FMM=F I1Cent=   0 AccDes= 0.00D+00.
 End of G2Drv F.D. properties file   721 does not exist.
 End of G2Drv F.D. properties file   722 does not exist.
 End of G2Drv F.D. properties file   788 does not exist.
          IDoAtm=1111111111111111
          Differentiating once with respect to nuclear coordinates.
 Keep R1 ints in memory in canonical form, NReq=1414050941.
          There are    51 degrees of freedom in the 1st order CPHF.  IDoFFX=6 NUNeed=     0.
     45 vectors produced by pass  0 Test12= 1.86D-14 1.96D-09 XBig12= 2.06D-01 1.40D-01.
 AX will form    45 AO Fock derivatives at one time.
     45 vectors produced by pass  1 Test12= 1.86D-14 1.96D-09 XBig12= 2.68D-02 3.49D-02.
     45 vectors produced by pass  2 Test12= 1.86D-14 1.96D-09 XBig12= 9.04D-04 5.18D-03.
     45 vectors produced by pass  3 Test12= 1.86D-14 1.96D-09 XBig12= 1.17D-05 4.20D-04.
     45 vectors produced by pass  4 Test12= 1.86D-14 1.96D-09 XBig12= 1.27D-07 4.96D-05.
     45 vectors produced by pass  5 Test12= 1.86D-14 1.96D-09 XBig12= 1.03D-09 4.00D-06.
     45 vectors produced by pass  6 Test12= 1.86D-14 1.96D-09 XBig12= 7.01D-12 2.36D-07.
     26 vectors produced by pass  7 Test12= 1.86D-14 1.96D-09 XBig12= 5.06D-14 2.01D-08.
     10 vectors produced by pass  8 Test12= 1.86D-14 1.96D-09 XBig12= 3.84D-15 9.14D-09.
      1 vectors produced by pass  9 Test12= 1.86D-14 1.96D-09 XBig12= 1.51D-16 2.02D-09.
 InvSVY:  IOpt=1 It=  1 EMax= 4.44D-16
 Solved reduced A of dimension   352 with    51 vectors.
 End of Minotr F.D. properties file   721 does not exist.
 End of Minotr F.D. properties file   722 does not exist.
 End of Minotr F.D. properties file   788 does not exist.
 Calling FoFJK, ICntrl=    100127 FMM=F ISym2X=0 I1Cent= 0 IOpClX= 0 NMat=1 NMatS=1 NMatT=0.
 -------------------------------------------------------------------
 Center     Atomic                   Forces (Hartrees/Bohr)
 Number     Number              X              Y              Z
 -------------------------------------------------------------------
      1        6          -0.001334015   -0.002345726   -0.000463897
      2        6          -0.001251764    0.000574504   -0.000500366
      3        6           0.000623043    0.000617689    0.000882261
      4        6          -0.000601200    0.000580763    0.000137767
      5        6           0.000015303   -0.000791751    0.000059977
      6        6           0.001138196    0.000136412   -0.000121806
      7        8           0.001584925    0.001324811   -0.000597272
      8        6           0.003586011    0.003820063   -0.004243278
      9        1           0.000056842    0.000055796    0.000056006
     10        1           0.000063749    0.000009021   -0.000094975
     11        1          -0.002438303    0.001502825    0.001719714
     12        1           0.000013553   -0.000004155    0.000000965
     13        1          -0.000017495    0.000033866   -0.000060379
     14        9          -0.000773730   -0.005458715    0.002340520
     15        9          -0.000457024   -0.000651279    0.001118631
     16        9          -0.000208090    0.000595875   -0.000233867
 -------------------------------------------------------------------
 Cartesian Forces:  Max     0.005458715 RMS     0.001536721
 IRC-IRC-IRC-IRC-IRC-IRC-IRC-IRC-IRC-IRC-IRC-IRC-IRC-IRC-IRC-IRC-IRC-IRC
 Pt  2 Step number   1 out of a maximum of  20
 Modified Bulirsch-Stoer Extrapolation Cycles:
    EPS =    0.000010000000000
      PEZero:  N= 2 I= 1 D=  3.31D-04 Err=  1.13D-05
      PEZero:  N= 3 I= 2 D=  3.31D-04 Err=  7.54D-06
      PEZero:  N= 3 I= 1 D=  6.63D-04 Err=  3.35D-08
 Maximum DWI energy   std dev =  0.000000390 at pt    17
 Maximum DWI gradient std dev =  0.012501908 at pt    12
 CORRECTOR INTEGRATION CONVERGENCE:
   Recorrection delta-x convergence threshold:    0.010000
   Delta-x Convergence Met
 Point Number:   2          Path Number:   1
   CHANGE IN THE REACTION COORDINATE =    0.06363
   NET REACTION COORDINATE UP TO THIS POINT =    0.12725
  # OF POINTS ALONG THE PATH =   2
  # OF STEPS =   1

 Calculating another point on the path.
 IRC-IRC-IRC-IRC-IRC-IRC-IRC-IRC-IRC-IRC-IRC-IRC-IRC-IRC-IRC-IRC-IRC-IRC
                          Input orientation:                          
 ---------------------------------------------------------------------
 Center     Atomic      Atomic             Coordinates (Angstroms)
 Number     Number       Type             X           Y           Z
 ---------------------------------------------------------------------
      1          6           0       -0.687922    0.979286    0.113988
      2          6           0       -0.184198   -0.362005    0.043291
      3          6           0       -1.049099   -1.460492   -0.205479
      4          6           0       -2.399235   -1.260550   -0.193681
      5          6           0       -2.909701    0.041145    0.038640
      6          6           0       -2.095360    1.131680    0.195179
      7          8           0        0.105668    1.981354    0.005074
      8          6           0        1.191576   -0.558248    0.220465
      9          1           0       -0.632366   -2.451211   -0.342029
     10          1           0       -2.494888    2.131522    0.308981
     11          1           0        1.051860    1.607427   -0.520073
     12          1           0       -3.985084    0.181927    0.065468
     13          1           0       -3.078055   -2.090263   -0.341354
     14          9           0        1.887298    0.924906   -1.051060
     15          9           0        1.871657    0.004836    1.155563
     16          9           0        1.774517   -1.624322   -0.198958
 ---------------------------------------------------------------------
                    Distance matrix (angstroms):
                    1          2          3          4          5
     1  C    0.000000
     2  C    1.434502   0.000000
     3  C    2.486971   1.420075   0.000000
     4  C    2.835510   2.402067   1.364911   0.000000
     5  C    2.412900   2.755162   2.403404   1.417378   0.000000
     6  C    1.417991   2.430372   2.823924   2.442605   1.370008
     7  O    1.282883   2.361529   3.636499   4.101706   3.585804
     8  C    2.430609   1.400948   2.452773   3.682209   4.148832
     9  H    3.461119   2.171199   1.083437   2.135768   3.397499
    10  H    2.151929   3.409920   3.906090   3.430448   2.148215
    11  H    1.955360   2.392463   3.731638   4.499098   4.296436
    12  H    3.392553   3.839673   3.375050   2.159356   1.084891
    13  H    3.916913   3.392526   2.128787   1.082140   2.171553
    14  F    2.827022   2.672984   3.876540   4.887298   4.997968
    15  F    2.930166   2.366064   3.539835   4.654264   4.910216
    16  F    3.597265   2.342796   2.828372   4.189578   4.977161
                    6          7          8          9         10
     6  C    0.000000
     7  O    2.366984   0.000000
     8  C    3.696004   2.770409   0.000000
     9  H    3.907180   4.506973   2.688210   0.000000
    10  H    1.082708   2.622556   4.564287   4.989413   0.000000
    11  H    3.262348   1.144936   2.293047   4.397824   3.679867
    12  H    2.118941   4.469434   5.231605   4.282544   2.465949
    13  H    3.410935   5.180171   4.570827   2.472180   4.311205
    14  F    4.178210   2.325018   2.073777   4.271955   4.744385
    15  F    4.234305   2.889457   1.286072   3.813801   4.930132
    16  F    4.767268   3.978390   1.285399   2.548980   5.708956
                   11         12         13         14         15
    11  H    0.000000
    12  H    5.267420   0.000000
    13  H    5.546264   2.480132   0.000000
    14  F    1.202389   6.023581   5.852321   0.000000
    15  F    2.459293   5.959956   5.579413   2.390807   0.000000
    16  F    3.327094   6.041975   4.876969   2.690235   2.120925
                   16
    16  F    0.000000
 Symmetry turned off by external request.
 Stoichiometry    C7H5F3O
 Framework group  C1[X(C7H5F3O)]
 Deg. of freedom    42
 Full point group                 C1      NOp   1
 Rotational constants (GHZ):           1.8475547           0.9406848           0.7108007
 Standard basis: 6-311+G(d,p) (5D, 7F)
   272 basis functions,   436 primitive gaussians,   283 cartesian basis functions
    41 alpha electrons       41 beta electrons
       nuclear repulsion energy       633.0387509424 Hartrees.
 NAtoms=   16 NActive=   16 NUniq=   16 SFac= 1.00D+00 NAtFMM=   60 NAOKFM=F Big=F
 Integral buffers will be    131072 words long.
 Raffenetti 2 integral format.
 Two-electron integral symmetry is turned off.
 Nuclear repulsion after empirical dispersion term =      633.0308614433 Hartrees.
 One-electron integrals computed using PRISM.
 NBasis=   272 RedAO= T EigKep=  3.15D-06  NBF=   272
 NBsUse=   272 1.00D-06 EigRej= -1.00D+00 NBFU=   272
 Initial guess from the checkpoint file:  "irc_s0_f_oqm.chk"
 B after Tr=    -0.000199    0.000179    0.000130
         Rot=    1.000000   -0.000047    0.000005   -0.000031 Ang=  -0.01 deg.
 ExpMin= 4.38D-02 ExpMax= 1.14D+04 ExpMxC= 1.72D+03 IAcc=3 IRadAn=         5 AccDes= 0.00D+00
 Harris functional with IExCor= 4639 and IRadAn=       5 diagonalized for initial guess.
 HarFok:  IExCor= 4639 AccDes= 0.00D+00 IRadAn=         5 IDoV= 1 UseB2=F ITyADJ=14
 ICtDFT=  3500011 ScaDFX=  1.000000  1.000000  1.000000  1.000000
 FoFCou: FMM=F IPFlag=           0 FMFlag=      100000 FMFlg1=           0
         NFxFlg=           0 DoJE=T BraDBF=F KetDBF=T FulRan=T
         wScrn=  0.000000 ICntrl=       500 IOpCl=  0 I1Cent=   200000004 NGrid=           0
         NMat0=    1 NMatS0=      1 NMatT0=    0 NMatD0=    1 NMtDS0=    0 NMtDT0=    0
 Symmetry not used in FoFCou.
 Requested convergence on RMS density matrix=1.00D-08 within 128 cycles.
 Requested convergence on MAX density matrix=1.00D-06.
 Requested convergence on             energy=1.00D-06.
 No special actions if energy rises.
 SCF Done:  E(RwB97XD) =  -644.436585214     A.U. after   14 cycles
            NFock= 14  Conv=0.47D-08     -V/T= 2.0031
 QCSCF skips out because SCF is already converged.
 DoSCS=F DFT=T ScalE2(SS,OS)=  1.000000  1.000000
 Range of M.O.s used for correlation:     1   272
 NBasis=   272 NAE=    41 NBE=    41 NFC=     0 NFV=     0
 NROrb=    272 NOA=    41 NOB=    41 NVA=   231 NVB=   231

 **** Warning!!: The largest alpha MO coefficient is  0.14942937D+03

 Symmetrizing basis deriv contribution to polar:
 IMax=3 JMax=2 DiffMx= 0.00D+00
 G2DrvN: will do    17 centers at a time, making    1 passes.
 Calling FoFCou, ICntrl=  3107 FMM=F I1Cent=   0 AccDes= 0.00D+00.
 End of G2Drv F.D. properties file   721 does not exist.
 End of G2Drv F.D. properties file   722 does not exist.
 End of G2Drv F.D. properties file   788 does not exist.
          IDoAtm=1111111111111111
          Differentiating once with respect to nuclear coordinates.
 Keep R1 ints in memory in canonical form, NReq=1414050941.
          There are    51 degrees of freedom in the 1st order CPHF.  IDoFFX=6 NUNeed=     0.
     45 vectors produced by pass  0 Test12= 1.86D-14 1.96D-09 XBig12= 2.05D-01 1.39D-01.
 AX will form    45 AO Fock derivatives at one time.
     45 vectors produced by pass  1 Test12= 1.86D-14 1.96D-09 XBig12= 2.66D-02 3.34D-02.
     45 vectors produced by pass  2 Test12= 1.86D-14 1.96D-09 XBig12= 8.96D-04 4.87D-03.
     45 vectors produced by pass  3 Test12= 1.86D-14 1.96D-09 XBig12= 1.13D-05 4.11D-04.
     45 vectors produced by pass  4 Test12= 1.86D-14 1.96D-09 XBig12= 1.22D-07 4.97D-05.
     45 vectors produced by pass  5 Test12= 1.86D-14 1.96D-09 XBig12= 1.00D-09 4.06D-06.
     45 vectors produced by pass  6 Test12= 1.86D-14 1.96D-09 XBig12= 6.82D-12 2.44D-07.
     26 vectors produced by pass  7 Test12= 1.86D-14 1.96D-09 XBig12= 4.98D-14 2.02D-08.
      9 vectors produced by pass  8 Test12= 1.86D-14 1.96D-09 XBig12= 3.43D-15 7.69D-09.
 InvSVY:  IOpt=1 It=  1 EMax= 3.61D-16
 Solved reduced A of dimension   350 with    51 vectors.
 End of Minotr F.D. properties file   721 does not exist.
 End of Minotr F.D. properties file   722 does not exist.
 End of Minotr F.D. properties file   788 does not exist.
 Calling FoFJK, ICntrl=    100127 FMM=F ISym2X=0 I1Cent= 0 IOpClX= 0 NMat=1 NMatS=1 NMatT=0.
 -------------------------------------------------------------------
 Center     Atomic                   Forces (Hartrees/Bohr)
 Number     Number              X              Y              Z
 -------------------------------------------------------------------
      1        6          -0.002019682   -0.003474348   -0.000692727
      2        6          -0.001827139    0.000856362   -0.000752645
      3        6           0.000929940    0.000928506    0.001315502
      4        6          -0.000889061    0.000869372    0.000204836
      5        6          -0.000006202   -0.001169503    0.000090809
      6        6           0.001646308    0.000169252   -0.000200786
      7        8           0.001537298    0.002429023   -0.000341545
      8        6           0.005396033    0.005813950   -0.006455082
      9        1           0.000086375    0.000084651    0.000083809
     10        1           0.000096917    0.000012426   -0.000140900
     11        1          -0.003319037    0.002202831    0.002389771
     12        1           0.000017256   -0.000008071    0.000002535
     13        1          -0.000025488    0.000050695   -0.000089486
     14        9          -0.000668702   -0.008664210    0.003226032
     15        9          -0.000664767   -0.000946872    0.001718436
     16        9          -0.000290049    0.000845935   -0.000358560
 -------------------------------------------------------------------
 Cartesian Forces:  Max     0.008664210 RMS     0.002310400
 IRC-IRC-IRC-IRC-IRC-IRC-IRC-IRC-IRC-IRC-IRC-IRC-IRC-IRC-IRC-IRC-IRC-IRC
 Pt  3 Step number   1 out of a maximum of  20
 Modified Bulirsch-Stoer Extrapolation Cycles:
    EPS =    0.000010000000000
      PEZero:  N= 2 I= 1 D=  3.31D-04 Err=  1.38D-05
      PEZero:  N= 3 I= 2 D=  3.31D-04 Err=  9.18D-06
      PEZero:  N= 3 I= 1 D=  6.63D-04 Err=  2.57D-08
 Maximum DWI energy   std dev =  0.000000846 at pt    27
 Maximum DWI gradient std dev =  0.009938409 at pt    25
 CORRECTOR INTEGRATION CONVERGENCE:
   Recorrection delta-x convergence threshold:    0.010000
   Delta-x Convergence Met
 Point Number:   3          Path Number:   1
   CHANGE IN THE REACTION COORDINATE =    0.06362
   NET REACTION COORDINATE UP TO THIS POINT =    0.19088
  # OF POINTS ALONG THE PATH =   3
  # OF STEPS =   1

 Calculating another point on the path.
 IRC-IRC-IRC-IRC-IRC-IRC-IRC-IRC-IRC-IRC-IRC-IRC-IRC-IRC-IRC-IRC-IRC-IRC
                          Input orientation:                          
 ---------------------------------------------------------------------
 Center     Atomic      Atomic             Coordinates (Angstroms)
 Number     Number       Type             X           Y           Z
 ---------------------------------------------------------------------
      1          6           0       -0.688846    0.977707    0.113664
      2          6           0       -0.185018   -0.361609    0.042938
      3          6           0       -1.048672   -1.460062   -0.204869
      4          6           0       -2.399639   -1.260151   -0.193586
      5          6           0       -2.909710    0.040614    0.038683
      6          6           0       -2.094620    1.131744    0.195080
      7          8           0        0.106062    1.982267    0.005046
      8          6           0        1.194071   -0.555526    0.217443
      9          1           0       -0.631887   -2.450741   -0.341564
     10          1           0       -2.494340    2.131587    0.308207
     11          1           0        1.034363    1.619330   -0.507384
     12          1           0       -3.985001    0.181877    0.065484
     13          1           0       -3.078190   -2.089984   -0.341841
     14          9           0        1.887163    0.922293   -1.050142
     15          9           0        1.871466    0.004563    1.156073
     16          9           0        1.774438   -1.624077   -0.199069
 ---------------------------------------------------------------------
                    Distance matrix (angstroms):
                    1          2          3          4          5
     1  C    0.000000
     2  C    1.432694   0.000000
     3  C    2.484684   1.419121   0.000000
     4  C    2.833588   2.401639   1.365725   0.000000
     5  C    2.411639   2.754224   2.403084   1.416373   0.000000
     6  C    1.416530   2.428957   2.823371   2.442388   1.370911
     7  O    1.285620   2.362185   3.636909   4.102593   3.586925
     8  C    2.430422   1.403546   2.454878   3.685131   4.150706
     9  H    3.459007   2.170715   1.083439   2.136434   3.397045
    10  H    2.151533   3.408718   3.905527   3.429963   2.148800
    11  H    1.940832   2.390369   3.730041   4.492466   4.283252
    12  H    3.391210   3.838718   3.375068   2.158688   1.084861
    13  H    3.914994   3.392017   2.129438   1.082144   2.170860
    14  F    2.827249   2.671547   3.874175   4.886044   4.997288
    15  F    2.930669   2.366914   3.538996   4.654398   4.910143
    16  F    3.596504   2.343471   2.827876   4.189915   4.976843
                    6          7          8          9         10
     6  C    0.000000
     7  O    2.366961   0.000000
     8  C    3.696332   2.769345   0.000000
     9  H    3.906632   4.507357   2.690437   0.000000
    10  H    1.082709   2.622268   4.564339   4.988853   0.000000
    11  H    3.243722   1.120737   2.298017   4.401064   3.657778
    12  H    2.119571   4.470107   5.233511   4.282492   2.466243
    13  H    3.411045   5.181025   4.573792   2.472760   4.311045
    14  F    4.177205   2.325788   2.066664   4.269081   4.743951
    15  F    4.233660   2.890126   1.285920   3.812901   4.929844
    16  F    4.766498   3.978801   1.285343   2.548348   5.708309
                   11         12         13         14         15
    11  H    0.000000
    12  H    5.252472   0.000000
    13  H    5.540714   2.479833   0.000000
    14  F    1.227890   6.022885   5.850661   0.000000
    15  F    2.464813   5.959784   5.579424   2.389532   0.000000
    16  F    3.341026   6.041737   4.877033   2.687198   2.120918
                   16
    16  F    0.000000
 Symmetry turned off by external request.
 Stoichiometry    C7H5F3O
 Framework group  C1[X(C7H5F3O)]
 Deg. of freedom    42
 Full point group                 C1      NOp   1
 Rotational constants (GHZ):           1.8486817           0.9407637           0.7109197
 Standard basis: 6-311+G(d,p) (5D, 7F)
   272 basis functions,   436 primitive gaussians,   283 cartesian basis functions
    41 alpha electrons       41 beta electrons
       nuclear repulsion energy       633.1045694305 Hartrees.
 NAtoms=   16 NActive=   16 NUniq=   16 SFac= 1.00D+00 NAtFMM=   60 NAOKFM=F Big=F
 Integral buffers will be    131072 words long.
 Raffenetti 2 integral format.
 Two-electron integral symmetry is turned off.
 Nuclear repulsion after empirical dispersion term =      633.0966787945 Hartrees.
 One-electron integrals computed using PRISM.
 NBasis=   272 RedAO= T EigKep=  3.13D-06  NBF=   272
 NBsUse=   272 1.00D-06 EigRej= -1.00D+00 NBFU=   272
 Initial guess from the checkpoint file:  "irc_s0_f_oqm.chk"
 B after Tr=    -0.000184    0.000185    0.000123
         Rot=    1.000000   -0.000046    0.000005   -0.000030 Ang=  -0.01 deg.
 ExpMin= 4.38D-02 ExpMax= 1.14D+04 ExpMxC= 1.72D+03 IAcc=3 IRadAn=         5 AccDes= 0.00D+00
 Harris functional with IExCor= 4639 and IRadAn=       5 diagonalized for initial guess.
 HarFok:  IExCor= 4639 AccDes= 0.00D+00 IRadAn=         5 IDoV= 1 UseB2=F ITyADJ=14
 ICtDFT=  3500011 ScaDFX=  1.000000  1.000000  1.000000  1.000000
 FoFCou: FMM=F IPFlag=           0 FMFlag=      100000 FMFlg1=           0
         NFxFlg=           0 DoJE=T BraDBF=F KetDBF=T FulRan=T
         wScrn=  0.000000 ICntrl=       500 IOpCl=  0 I1Cent=   200000004 NGrid=           0
         NMat0=    1 NMatS0=      1 NMatT0=    0 NMatD0=    1 NMtDS0=    0 NMtDT0=    0
 Symmetry not used in FoFCou.
 Requested convergence on RMS density matrix=1.00D-08 within 128 cycles.
 Requested convergence on MAX density matrix=1.00D-06.
 Requested convergence on             energy=1.00D-06.
 No special actions if energy rises.
 SCF Done:  E(RwB97XD) =  -644.437024993     A.U. after   14 cycles
            NFock= 14  Conv=0.57D-08     -V/T= 2.0031
 QCSCF skips out because SCF is already converged.
 DoSCS=F DFT=T ScalE2(SS,OS)=  1.000000  1.000000
 Range of M.O.s used for correlation:     1   272
 NBasis=   272 NAE=    41 NBE=    41 NFC=     0 NFV=     0
 NROrb=    272 NOA=    41 NOB=    41 NVA=   231 NVB=   231

 **** Warning!!: The largest alpha MO coefficient is  0.14865976D+03

 Symmetrizing basis deriv contribution to polar:
 IMax=3 JMax=2 DiffMx= 0.00D+00
 G2DrvN: will do    17 centers at a time, making    1 passes.
 Calling FoFCou, ICntrl=  3107 FMM=F I1Cent=   0 AccDes= 0.00D+00.
 End of G2Drv F.D. properties file   721 does not exist.
 End of G2Drv F.D. properties file   722 does not exist.
 End of G2Drv F.D. properties file   788 does not exist.
          IDoAtm=1111111111111111
          Differentiating once with respect to nuclear coordinates.
 Keep R1 ints in memory in canonical form, NReq=1414050941.
          There are    51 degrees of freedom in the 1st order CPHF.  IDoFFX=6 NUNeed=     0.
     45 vectors produced by pass  0 Test12= 1.86D-14 1.96D-09 XBig12= 2.05D-01 1.38D-01.
 AX will form    45 AO Fock derivatives at one time.
     45 vectors produced by pass  1 Test12= 1.86D-14 1.96D-09 XBig12= 2.64D-02 3.13D-02.
     45 vectors produced by pass  2 Test12= 1.86D-14 1.96D-09 XBig12= 8.92D-04 4.61D-03.
     45 vectors produced by pass  3 Test12= 1.86D-14 1.96D-09 XBig12= 1.08D-05 4.09D-04.
     45 vectors produced by pass  4 Test12= 1.86D-14 1.96D-09 XBig12= 1.18D-07 4.94D-05.
     45 vectors produced by pass  5 Test12= 1.86D-14 1.96D-09 XBig12= 9.75D-10 4.06D-06.
     45 vectors produced by pass  6 Test12= 1.86D-14 1.96D-09 XBig12= 6.65D-12 2.52D-07.
     26 vectors produced by pass  7 Test12= 1.86D-14 1.96D-09 XBig12= 4.90D-14 2.01D-08.
     10 vectors produced by pass  8 Test12= 1.86D-14 1.96D-09 XBig12= 3.62D-15 9.08D-09.
 InvSVY:  IOpt=1 It=  1 EMax= 4.44D-16
 Solved reduced A of dimension   351 with    51 vectors.
 End of Minotr F.D. properties file   721 does not exist.
 End of Minotr F.D. properties file   722 does not exist.
 End of Minotr F.D. properties file   788 does not exist.
 Calling FoFJK, ICntrl=    100127 FMM=F ISym2X=0 I1Cent= 0 IOpClX= 0 NMat=1 NMatS=1 NMatT=0.
 -------------------------------------------------------------------
 Center     Atomic                   Forces (Hartrees/Bohr)
 Number     Number              X              Y              Z
 -------------------------------------------------------------------
      1        6          -0.002570994   -0.004349607   -0.000915720
      2        6          -0.002234671    0.001104890   -0.001003273
      3        6           0.001189612    0.001206866    0.001711996
      4        6          -0.001114648    0.001112626    0.000270103
      5        6          -0.000045805   -0.001464608    0.000125036
      6        6           0.002025515    0.000144175   -0.000292909
      7        8           0.000730825    0.003716971    0.000345907
      8        6           0.006996149    0.007718653   -0.008564510
      9        1           0.000114033    0.000111712    0.000110702
     10        1           0.000131003    0.000014582   -0.000181122
     11        1          -0.003676228    0.002682283    0.002741354
     12        1           0.000018017   -0.000013112    0.000004634
     13        1          -0.000031219    0.000064973   -0.000113226
     14        9          -0.000375208   -0.011933182    0.003977872
     15        9          -0.000830422   -0.001192637    0.002299276
     16        9          -0.000325959    0.001075418   -0.000516121
 -------------------------------------------------------------------
 Cartesian Forces:  Max     0.011933182 RMS     0.003028629
 IRC-IRC-IRC-IRC-IRC-IRC-IRC-IRC-IRC-IRC-IRC-IRC-IRC-IRC-IRC-IRC-IRC-IRC
 Pt  4 Step number   1 out of a maximum of  20
 Modified Bulirsch-Stoer Extrapolation Cycles:
    EPS =    0.000010000000000
      PEZero:  N= 2 I= 1 D=  3.31D-04 Err=  1.98D-05
      PEZero:  N= 3 I= 2 D=  3.31D-04 Err=  1.32D-05
      PEZero:  N= 3 I= 1 D=  6.63D-04 Err=  3.88D-08
 Maximum DWI energy   std dev =  0.000001128 at pt    27
 Maximum DWI gradient std dev =  0.009597566 at pt    17
 CORRECTOR INTEGRATION CONVERGENCE:
   Recorrection delta-x convergence threshold:    0.010000
   Delta-x Convergence Met
 Point Number:   4          Path Number:   1
   CHANGE IN THE REACTION COORDINATE =    0.06361
   NET REACTION COORDINATE UP TO THIS POINT =    0.25448
  # OF POINTS ALONG THE PATH =   4
  # OF STEPS =   1

 Calculating another point on the path.
 IRC-IRC-IRC-IRC-IRC-IRC-IRC-IRC-IRC-IRC-IRC-IRC-IRC-IRC-IRC-IRC-IRC-IRC
                          Input orientation:                          
 ---------------------------------------------------------------------
 Center     Atomic      Atomic             Coordinates (Angstroms)
 Number     Number       Type             X           Y           Z
 ---------------------------------------------------------------------
      1          6           0       -0.689802    0.976101    0.113308
      2          6           0       -0.185828   -0.361188    0.042545
      3          6           0       -1.048225   -1.459603   -0.204214
      4          6           0       -2.400051   -1.259734   -0.193481
      5          6           0       -2.909735    0.040073    0.038733
      6          6           0       -2.093878    1.131777    0.194961
      7          8           0        0.106105    1.983398    0.005249
      8          6           0        1.196726   -0.552545    0.214136
      9          1           0       -0.631366   -2.450231   -0.341053
     10          1           0       -2.493725    2.131648    0.307390
     11          1           0        1.018913    1.630994   -0.495697
     12          1           0       -3.984932    0.181810    0.065508
     13          1           0       -3.078324   -2.089693   -0.342344
     14          9           0        1.887118    0.919331   -1.049194
     15          9           0        1.871271    0.004281    1.156636
     16          9           0        1.774368   -1.623815   -0.199203
 ---------------------------------------------------------------------
                    Distance matrix (angstroms):
                    1          2          3          4          5
     1  C    0.000000
     2  C    1.430853   0.000000
     3  C    2.482326   1.418145   0.000000
     4  C    2.831613   2.401225   1.366564   0.000000
     5  C    2.410355   2.753306   2.402763   1.415344   0.000000
     6  C    1.415037   2.427515   2.822762   2.442121   1.371805
     7  O    1.288330   2.362985   3.637391   4.103440   3.587886
     8  C    2.430209   1.406242   2.457148   3.688235   4.152708
     9  H    3.456821   2.170196   1.083439   2.137126   3.396589
    10  H    2.151068   3.407457   3.904907   3.429449   2.149402
    11  H    1.928595   2.389537   3.729585   4.487422   4.272109
    12  H    3.389847   3.837782   3.375091   2.158002   1.084830
    13  H    3.913023   3.391519   2.130116   1.082149   2.170148
    14  F    2.827570   2.669968   3.871635   4.884710   4.996647
    15  F    2.931222   2.367788   3.538124   4.654540   4.910092
    16  F    3.595742   2.344149   2.827370   4.190270   4.976540
                    6          7          8          9         10
     6  C    0.000000
     7  O    2.366680   0.000000
     8  C    3.696672   2.768410   0.000000
     9  H    3.906025   4.507866   2.692836   0.000000
    10  H    1.082710   2.621524   4.564321   4.988234   0.000000
    11  H    3.227335   1.099251   2.302894   4.404966   3.637888
    12  H    2.120208   4.470564   5.235547   4.282446   2.466592
    13  H    3.411114   5.181842   4.576958   2.473377   4.310874
    14  F    4.176289   2.327250   2.058898   4.265931   4.743608
    15  F    4.233022   2.891091   1.285835   3.811940   4.929513
    16  F    4.765709   3.979559   1.285355   2.547673   5.707605
                   11         12         13         14         15
    11  H    0.000000
    12  H    5.239613   0.000000
    13  H    5.536639   2.479518   0.000000
    14  F    1.251640   6.022248   5.848887   0.000000
    15  F    2.470407   5.959631   5.579440   2.388148   0.000000
    16  F    3.354460   6.041514   4.877104   2.683801   2.120940
                   16
    16  F    0.000000
 Symmetry turned off by external request.
 Stoichiometry    C7H5F3O
 Framework group  C1[X(C7H5F3O)]
 Deg. of freedom    42
 Full point group                 C1      NOp   1
 Rotational constants (GHZ):           1.8498504           0.9408107           0.7110288
 Standard basis: 6-311+G(d,p) (5D, 7F)
   272 basis functions,   436 primitive gaussians,   283 cartesian basis functions
    41 alpha electrons       41 beta electrons
       nuclear repulsion energy       633.1689397690 Hartrees.
 NAtoms=   16 NActive=   16 NUniq=   16 SFac= 1.00D+00 NAtFMM=   60 NAOKFM=F Big=F
 Integral buffers will be    131072 words long.
 Raffenetti 2 integral format.
 Two-electron integral symmetry is turned off.
 Nuclear repulsion after empirical dispersion term =      633.1610480197 Hartrees.
 One-electron integrals computed using PRISM.
 NBasis=   272 RedAO= T EigKep=  3.11D-06  NBF=   272
 NBsUse=   272 1.00D-06 EigRej= -1.00D+00 NBFU=   272
 Initial guess from the checkpoint file:  "irc_s0_f_oqm.chk"
 B after Tr=    -0.000161    0.000186    0.000110
         Rot=    1.000000   -0.000043    0.000005   -0.000028 Ang=  -0.01 deg.
 ExpMin= 4.38D-02 ExpMax= 1.14D+04 ExpMxC= 1.72D+03 IAcc=3 IRadAn=         5 AccDes= 0.00D+00
 Harris functional with IExCor= 4639 and IRadAn=       5 diagonalized for initial guess.
 HarFok:  IExCor= 4639 AccDes= 0.00D+00 IRadAn=         5 IDoV= 1 UseB2=F ITyADJ=14
 ICtDFT=  3500011 ScaDFX=  1.000000  1.000000  1.000000  1.000000
 FoFCou: FMM=F IPFlag=           0 FMFlag=      100000 FMFlg1=           0
         NFxFlg=           0 DoJE=T BraDBF=F KetDBF=T FulRan=T
         wScrn=  0.000000 ICntrl=       500 IOpCl=  0 I1Cent=   200000004 NGrid=           0
         NMat0=    1 NMatS0=      1 NMatT0=    0 NMatD0=    1 NMtDS0=    0 NMtDT0=    0
 Symmetry not used in FoFCou.
 Requested convergence on RMS density matrix=1.00D-08 within 128 cycles.
 Requested convergence on MAX density matrix=1.00D-06.
 Requested convergence on             energy=1.00D-06.
 No special actions if energy rises.
 SCF Done:  E(RwB97XD) =  -644.437535548     A.U. after   14 cycles
            NFock= 14  Conv=0.54D-08     -V/T= 2.0031
 QCSCF skips out because SCF is already converged.
 DoSCS=F DFT=T ScalE2(SS,OS)=  1.000000  1.000000
 Range of M.O.s used for correlation:     1   272
 NBasis=   272 NAE=    41 NBE=    41 NFC=     0 NFV=     0
 NROrb=    272 NOA=    41 NOB=    41 NVA=   231 NVB=   231

 **** Warning!!: The largest alpha MO coefficient is  0.14730654D+03

 Symmetrizing basis deriv contribution to polar:
 IMax=3 JMax=2 DiffMx= 0.00D+00
 G2DrvN: will do    17 centers at a time, making    1 passes.
 Calling FoFCou, ICntrl=  3107 FMM=F I1Cent=   0 AccDes= 0.00D+00.
 End of G2Drv F.D. properties file   721 does not exist.
 End of G2Drv F.D. properties file   722 does not exist.
 End of G2Drv F.D. properties file   788 does not exist.
          IDoAtm=1111111111111111
          Differentiating once with respect to nuclear coordinates.
 Keep R1 ints in memory in canonical form, NReq=1414050941.
          There are    51 degrees of freedom in the 1st order CPHF.  IDoFFX=6 NUNeed=     0.
     45 vectors produced by pass  0 Test12= 1.86D-14 1.96D-09 XBig12= 2.04D-01 1.36D-01.
 AX will form    45 AO Fock derivatives at one time.
     45 vectors produced by pass  1 Test12= 1.86D-14 1.96D-09 XBig12= 2.62D-02 3.07D-02.
     45 vectors produced by pass  2 Test12= 1.86D-14 1.96D-09 XBig12= 8.86D-04 4.47D-03.
     45 vectors produced by pass  3 Test12= 1.86D-14 1.96D-09 XBig12= 1.05D-05 4.06D-04.
     45 vectors produced by pass  4 Test12= 1.86D-14 1.96D-09 XBig12= 1.14D-07 4.87D-05.
     45 vectors produced by pass  5 Test12= 1.86D-14 1.96D-09 XBig12= 9.54D-10 4.03D-06.
     45 vectors produced by pass  6 Test12= 1.86D-14 1.96D-09 XBig12= 6.52D-12 2.54D-07.
     27 vectors produced by pass  7 Test12= 1.86D-14 1.96D-09 XBig12= 4.81D-14 2.06D-08.
      9 vectors produced by pass  8 Test12= 1.86D-14 1.96D-09 XBig12= 2.63D-15 9.57D-09.
 InvSVY:  IOpt=1 It=  1 EMax= 6.11D-16
 Solved reduced A of dimension   351 with    51 vectors.
 End of Minotr F.D. properties file   721 does not exist.
 End of Minotr F.D. properties file   722 does not exist.
 End of Minotr F.D. properties file   788 does not exist.
 Calling FoFJK, ICntrl=    100127 FMM=F ISym2X=0 I1Cent= 0 IOpClX= 0 NMat=1 NMatS=1 NMatT=0.
 -------------------------------------------------------------------
 Center     Atomic                   Forces (Hartrees/Bohr)
 Number     Number              X              Y              Z
 -------------------------------------------------------------------
      1        6          -0.002932956   -0.004863111   -0.001125648
      2        6          -0.002410161    0.001316979   -0.001255952
      3        6           0.001380585    0.001434684    0.002051783
      4        6          -0.001249807    0.001285299    0.000333631
      5        6          -0.000102134   -0.001645181    0.000161923
      6        6           0.002230956    0.000048344   -0.000394913
      7        8          -0.000709546    0.005057516    0.001374526
      8        6           0.008270633    0.009436439   -0.010461353
      9        1           0.000137988    0.000135223    0.000135786
     10        1           0.000164580    0.000014955   -0.000212753
     11        1          -0.003473450    0.002851248    0.002744149
     12        1           0.000015344   -0.000019005    0.000006909
     13        1          -0.000033358    0.000075188   -0.000129024
     14        9          -0.000038693   -0.015061554    0.004666441
     15        9          -0.000944399   -0.001370764    0.002822174
     16        9          -0.000305581    0.001303741   -0.000717677
 -------------------------------------------------------------------
 Cartesian Forces:  Max     0.015061554 RMS     0.003669774
 IRC-IRC-IRC-IRC-IRC-IRC-IRC-IRC-IRC-IRC-IRC-IRC-IRC-IRC-IRC-IRC-IRC-IRC
 Pt  5 Step number   1 out of a maximum of  20
 Modified Bulirsch-Stoer Extrapolation Cycles:
    EPS =    0.000010000000000
      PEZero:  N= 2 I= 1 D=  3.31D-04 Err=  2.72D-05
      PEZero:  N= 3 I= 2 D=  3.31D-04 Err=  1.81D-05
      PEZero:  N= 3 I= 1 D=  6.63D-04 Err=  6.62D-08
 Maximum DWI energy   std dev =  0.000001110 at pt    27
 Maximum DWI gradient std dev =  0.009320824 at pt    17
 CORRECTOR INTEGRATION CONVERGENCE:
   Recorrection delta-x convergence threshold:    0.010000
   Delta-x Convergence Met
 Point Number:   5          Path Number:   1
   CHANGE IN THE REACTION COORDINATE =    0.06359
[...]
  69                   -0.00301  -0.76338
  70                   -0.00272  -0.69974
  71                   -0.00242  -0.63610
  72                   -0.00212  -0.57246
  73                   -0.00182  -0.50883
  74                   -0.00153  -0.44519
  75                   -0.00124  -0.38156
  76                   -0.00095  -0.31795
  77                   -0.00068  -0.25435
  78                   -0.00043  -0.19077
  79                   -0.00022  -0.12719
  80                   -0.00006  -0.06361
  81                    0.00000   0.00000
  82                   -0.00007   0.06363
  83                   -0.00027   0.12725
  84                   -0.00060   0.19088
  85                   -0.00104   0.25448
  86                   -0.00156   0.31807
  87                   -0.00211   0.38164
  88                   -0.00269   0.44522
  89                   -0.00329   0.50883
  90                   -0.00392   0.57246
  91                   -0.00458   0.63609
  92                   -0.00526   0.69973
  93                   -0.00596   0.76337
  94                   -0.00668   0.82702
  95                   -0.00743   0.89066
  96                   -0.00820   0.95430
  97                   -0.00899   1.01795
  98                   -0.00980   1.08159
  99                   -0.01063   1.14524
 100                   -0.01148   1.20888
 101                   -0.01235   1.27253
 102                   -0.01324   1.33617
 103                   -0.01414   1.39982
 104                   -0.01507   1.46346
 105                   -0.01601   1.52711
 106                   -0.01697   1.59075
 107                   -0.01795   1.65440
 108                   -0.01895   1.71804
 109                   -0.01996   1.78169
 110                   -0.02098   1.84533
 111                   -0.02202   1.90898
 112                   -0.02307   1.97263
 113                   -0.02414   2.03627
 114                   -0.02522   2.09992
 115                   -0.02631   2.16356
 116                   -0.02741   2.22721
 117                   -0.02852   2.29085
 118                   -0.02964   2.35450
 119                   -0.03077   2.41815
 120                   -0.03190   2.48179
 121                   -0.03304   2.54544
 122                   -0.03419   2.60908
 123                   -0.03533   2.67273
 124                   -0.03648   2.73638
 125                   -0.03763   2.80002
 126                   -0.03878   2.86367
 127                   -0.03993   2.92731
 128                   -0.04107   2.99096
 129                   -0.04221   3.05461
 130                   -0.04334   3.11825
 131                   -0.04447   3.18190
 132                   -0.04558   3.24554
 133                   -0.04668   3.30919
 134                   -0.04777   3.37284
 135                   -0.04884   3.43648
 136                   -0.04990   3.50013
 137                   -0.05093   3.56377
 138                   -0.05194   3.62742
 139                   -0.05293   3.69106
 140                   -0.05389   3.75471
 141                   -0.05483   3.81835
 142                   -0.05573   3.88200
 143                   -0.05660   3.94564
 144                   -0.05744   4.00929
 145                   -0.05824   4.07293
 146                   -0.05901   4.13657
 147                   -0.05974   4.20022
 148                   -0.06043   4.26386
 149                   -0.06108   4.32750
 150                   -0.06169   4.39113
 151                   -0.06226   4.45477
 152                   -0.06280   4.51841
 153                   -0.06330   4.58204
 154                   -0.06376   4.64568
 155                   -0.06419   4.70931
 156                   -0.06459   4.77294
 157                   -0.06496   4.83657
 158                   -0.06530   4.90021
 159                   -0.06562   4.96384
 160                   -0.06591   5.02747
 161                   -0.06618   5.09110
 --------------------------------------------------------------------------
 
 Total number of points:                  160
 Total number of gradient calculations:   161
 Total number of Hessian calculations:    161
 IRC-IRC-IRC-IRC-IRC-IRC-IRC-IRC-IRC-IRC-IRC-IRC-IRC-IRC-IRC-IRC-IRC-IRC
                          Input orientation:                          
 ---------------------------------------------------------------------
 Center     Atomic      Atomic             Coordinates (Angstroms)
 Number     Number       Type             X           Y           Z
 ---------------------------------------------------------------------
      1          6           0       -0.687849    0.978078    0.188322
      2          6           0       -0.181725   -0.407197    0.081834
      3          6           0       -1.080442   -1.482901   -0.274531
      4          6           0       -2.410501   -1.264617   -0.281390
      5          6           0       -2.932134    0.045177    0.018572
      6          6           0       -2.131032    1.108512    0.256019
      7          8           0        0.063179    1.956611    0.136411
      8          6           0        1.115047   -0.677907    0.352268
      9          1           0       -0.672767   -2.468083   -0.464914
     10          1           0       -2.525793    2.101459    0.432182
     11          1           0        1.423323    1.646523   -0.792253
     12          1           0       -4.008937    0.178819    0.030154
     13          1           0       -3.097966   -2.072664   -0.496536
     14          9           0        2.057828    1.185813   -1.323812
     15          9           0        1.911378    0.065057    1.040829
     16          9           0        1.696783   -1.791274    0.021197
 ---------------------------------------------------------------------
                    Distance matrix (angstroms):
                    1          2          3          4          5
     1  C    0.000000
     2  C    1.478678   0.000000
     3  C    2.534715   1.446315   0.000000
     4  C    2.866677   2.415480   1.347869   0.000000
     5  C    2.436378   2.788081   2.418614   1.441401   0.000000
     6  C    1.450646   2.475381   2.846163   2.449214   1.352341
     7  O    1.234611   2.377087   3.647873   4.082886   3.555189
     8  C    2.453487   1.352049   2.420963   3.629771   4.124788
     9  H    3.507559   2.187992   1.083065   2.121729   3.413938
    10  H    2.167831   3.451196   3.928883   3.442811   2.136465
    11  H    2.421857   2.749177   4.041060   4.840860   4.710813
    12  H    3.419570   3.872162   3.380863   2.176136   1.085127
    13  H    3.947749   3.407749   2.113648   1.082514   2.185883
    14  F    3.141408   3.086927   4.251089   5.201655   5.291764
    15  F    2.883809   2.350271   3.616259   4.711150   4.950254
    16  F    3.658376   2.334125   2.809899   4.151953   4.979903
                    6          7          8          9         10
     6  C    0.000000
     7  O    2.355449   0.000000
     8  C    3.706425   2.844943   0.000000
     9  H    3.929162   4.525608   2.658721   0.000000
    10  H    1.082965   2.609835   4.581155   5.011906   0.000000
    11  H    3.744566   1.675877   2.609202   4.629333   4.159535
    12  H    2.107575   4.444543   5.205089   4.287333   2.461278
    13  H    3.408985   5.160282   4.518328   2.457426   4.314302
    14  F    4.477543   2.589403   2.677972   4.641639   4.993146
    15  F    4.248035   2.794957   1.288509   3.919422   4.919946
    16  F    4.807918   4.090059   1.299081   2.511801   5.757815
                   11         12         13         14         15
    11  H    0.000000
    12  H    5.686824   0.000000
    13  H    5.861898   2.485247   0.000000
    14  F    0.947314   6.297055   6.155019   0.000000
    15  F    2.469700   6.007040   5.659228   2.620891   0.000000
    16  F    3.543294   6.036274   4.830822   3.286708   2.128771
                   16
    16  F    0.000000
 Symmetry turned off by external request.
 Stoichiometry    C7H5F3O
 Framework group  C1[X(C7H5F3O)]
 Deg. of freedom    42
 Full point group                 C1      NOp   1
 Rotational constants (GHZ):           1.6524884           0.9002048           0.6750804

 **********************************************************************

            Population analysis using the SCF density.

 **********************************************************************

 Alpha  occ. eigenvalues --  -24.90110 -24.89774 -24.76003 -19.25443 -10.52781
 Alpha  occ. eigenvalues --  -10.40384 -10.34107 -10.33644 -10.33505 -10.31905
 Alpha  occ. eigenvalues --  -10.31328  -1.46425  -1.39680  -1.26426  -1.16574
 Alpha  occ. eigenvalues --   -0.99490  -0.93128  -0.87279  -0.81709  -0.76380
 Alpha  occ. eigenvalues --   -0.74502  -0.70870  -0.67841  -0.67750  -0.62553
 Alpha  occ. eigenvalues --   -0.61102  -0.59306  -0.59133  -0.58575  -0.56405
 Alpha  occ. eigenvalues --   -0.54736  -0.54346  -0.52830  -0.49326  -0.47947
 Alpha  occ. eigenvalues --   -0.47163  -0.47031  -0.45201  -0.39268  -0.37209
 Alpha  occ. eigenvalues --   -0.32591
 Alpha virt. eigenvalues --   -0.05304   0.04412   0.05034   0.06573   0.06770
 Alpha virt. eigenvalues --    0.07602   0.09061   0.09569   0.10104   0.11117
 Alpha virt. eigenvalues --    0.12351   0.12793   0.12914   0.14219   0.15488
 Alpha virt. eigenvalues --    0.16605   0.17267   0.18026   0.18574   0.19147
 Alpha virt. eigenvalues --    0.19271   0.20036   0.20808   0.21406   0.22167
 Alpha virt. eigenvalues --    0.22364   0.23500   0.24339   0.24823   0.25274
 Alpha virt. eigenvalues --    0.26343   0.26689   0.26786   0.27249   0.27541
 Alpha virt. eigenvalues --    0.29357   0.30003   0.30587   0.31252   0.32174
 Alpha virt. eigenvalues --    0.34328   0.35170   0.36939   0.37495   0.37907
 Alpha virt. eigenvalues --    0.39162   0.40466   0.40517   0.41440   0.41778
 Alpha virt. eigenvalues --    0.42485   0.43088   0.44098   0.46777   0.47752
 Alpha virt. eigenvalues --    0.49306   0.50010   0.51423   0.52560   0.55128
 Alpha virt. eigenvalues --    0.56651   0.57850   0.58587   0.59193   0.59718
 Alpha virt. eigenvalues --    0.60183   0.62200   0.63733   0.65403   0.66067
 Alpha virt. eigenvalues --    0.67138   0.69264   0.69877   0.70118   0.71384
 Alpha virt. eigenvalues --    0.73128   0.75389   0.77007   0.78272   0.79469
 Alpha virt. eigenvalues --    0.81559   0.84260   0.86644   0.88076   0.88332
 Alpha virt. eigenvalues --    0.88742   0.89435   0.91422   0.93469   0.95161
 Alpha virt. eigenvalues --    0.96343   1.00193   1.00513   1.04452   1.06205
 Alpha virt. eigenvalues --    1.10632   1.14442   1.15375   1.16899   1.21833
 Alpha virt. eigenvalues --    1.24189   1.26101   1.29228   1.31097   1.33479
 Alpha virt. eigenvalues --    1.36954   1.38996   1.41443   1.43513   1.45425
 Alpha virt. eigenvalues --    1.48719   1.49174   1.49720   1.50906   1.51318
 Alpha virt. eigenvalues --    1.52739   1.54572   1.56573   1.57626   1.58646
 Alpha virt. eigenvalues --    1.61880   1.64019   1.65748   1.66108   1.68448
 Alpha virt. eigenvalues --    1.70755   1.71989   1.75271   1.76688   1.78933
 Alpha virt. eigenvalues --    1.80714   1.83203   1.85404   1.89484   1.92810
 Alpha virt. eigenvalues --    1.95114   1.95755   1.97071   1.99270   2.00750
 Alpha virt. eigenvalues --    2.02117   2.04020   2.07559   2.07739   2.11504
 Alpha virt. eigenvalues --    2.14006   2.15728   2.21634   2.29592   2.30833
 Alpha virt. eigenvalues --    2.33211   2.33694   2.40949   2.46181   2.47517
 Alpha virt. eigenvalues --    2.53708   2.62619   2.67798   2.70920   2.72797
 Alpha virt. eigenvalues --    2.75159   2.78054   2.78931   2.81211   2.81803
 Alpha virt. eigenvalues --    2.83563   2.84678   2.87310   2.89558   2.96223
 Alpha virt. eigenvalues --    2.97062   2.97929   3.02819   3.13416   3.16585
 Alpha virt. eigenvalues --    3.16800   3.21682   3.27811   3.30550   3.36097
 Alpha virt. eigenvalues --    3.42282   3.47941   3.54746   3.58191   3.61044
 Alpha virt. eigenvalues --    3.65271   3.76501   3.78882   3.81299   3.82673
 Alpha virt. eigenvalues --    3.84512   3.93513   3.95810   4.01704   4.04038
 Alpha virt. eigenvalues --    4.07328   4.08708   4.08844   4.12775   4.14498
 Alpha virt. eigenvalues --    4.18746   4.22781   4.29015   4.38856   4.80769
 Alpha virt. eigenvalues --    4.81624   4.92864   5.02381   5.18795   5.37161
 Alpha virt. eigenvalues --    5.86032   6.33489   6.39100   6.45439   6.47540
 Alpha virt. eigenvalues --    6.50680   6.53783   6.65216   6.85074   7.00205
 Alpha virt. eigenvalues --   23.63029  23.84862  23.95823  24.01163  24.19107
 Alpha virt. eigenvalues --   24.29834  24.32287  50.15429  66.84122  66.88671
 Alpha virt. eigenvalues --   66.98515
          Condensed to atoms (all electrons):
               1          2          3          4          5          6
     1  C   12.983853  -1.394866  -3.269374   0.488073   0.259726  -2.043853
     2  C   -1.394866  12.641401  -3.849229   1.367371  -1.086362  -0.492615
     3  C   -3.269374  -3.849229  17.731498  -4.776143   1.517336  -0.667758
     4  C    0.488073   1.367371  -4.776143   8.431188  -0.431732   0.570364
     5  C    0.259726  -1.086362   1.517336  -0.431732   6.574962  -0.502042
     6  C   -2.043853  -0.492615  -0.667758   0.570364  -0.502042   8.709773
     7  O    0.189864   0.067141  -0.006000   0.007984  -0.068248  -0.108853
     8  C   -0.793626  -1.805089  -0.232458  -0.004890  -0.269302  -0.084914
     9  H   -0.015102  -0.011553   0.355700  -0.010707  -0.008588  -0.001374
    10  H    0.005195   0.012050  -0.010867  -0.007078  -0.024781   0.392053
    11  H    0.103918  -0.090218  -0.056188   0.012754  -0.006328   0.094002
    12  H   -0.008354   0.028619  -0.035907  -0.015351   0.381224   0.002411
    13  H   -0.003346   0.016418  -0.038878   0.398592  -0.016761  -0.003977
    14  F   -0.115071   0.102839   0.007909  -0.004448   0.005093  -0.035939
    15  F   -0.056703  -0.276707   0.009663   0.036305  -0.004026   0.027540
    16  F    0.068231  -0.251925  -0.078644   0.050516   0.004457   0.019334
               7          8          9         10         11         12
     1  C    0.189864  -0.793626  -0.015102   0.005195   0.103918  -0.008354
     2  C    0.067141  -1.805089  -0.011553   0.012050  -0.090218   0.028619
     3  C   -0.006000  -0.232458   0.355700  -0.010867  -0.056188  -0.035907
     4  C    0.007984  -0.004890  -0.010707  -0.007078   0.012754  -0.015351
     5  C   -0.068248  -0.269302  -0.008588  -0.024781  -0.006328   0.381224
     6  C   -0.108853  -0.084914  -0.001374   0.392053   0.094002   0.002411
     7  O    8.150455   0.061882  -0.000129  -0.005057   0.042389  -0.000310
     8  C    0.061882   8.246423   0.044751   0.006296  -0.051311   0.005065
     9  H   -0.000129   0.044751   0.474628   0.000021   0.000067  -0.000115
    10  H   -0.005057   0.006296   0.000021   0.463114  -0.000061  -0.006030
    11  H    0.042389  -0.051311   0.000067  -0.000061   0.430137   0.000004
    12  H   -0.000310   0.005065  -0.000115  -0.006030   0.000004   0.483715
    13  H    0.000070   0.010809  -0.005945  -0.000088  -0.000000  -0.004979
    14  F   -0.027217   0.082180   0.000030   0.000052   0.276870  -0.000002
    15  F   -0.001714   0.457246   0.000264   0.000011  -0.001225   0.000006
    16  F   -0.000695   0.368225   0.004257   0.000001  -0.000976   0.000001
              13         14         15         16
     1  C   -0.003346  -0.115071  -0.056703   0.068231
     2  C    0.016418   0.102839  -0.276707  -0.251925
     3  C   -0.038878   0.007909   0.009663  -0.078644
     4  C    0.398592  -0.004448   0.036305   0.050516
     5  C   -0.016761   0.005093  -0.004026   0.004457
     6  C   -0.003977  -0.035939   0.027540   0.019334
     7  O    0.000070  -0.027217  -0.001714  -0.000695
     8  C    0.010809   0.082180   0.457246   0.368225
     9  H   -0.005945   0.000030   0.000264   0.004257
    10  H   -0.000088   0.000052   0.000011   0.000001
    11  H   -0.000000   0.276870  -0.001225  -0.000976
    12  H   -0.004979  -0.000002   0.000006   0.000001
    13  H    0.483991   0.000002   0.000012  -0.000013
    14  F    0.000002   8.982348  -0.001682  -0.007264
    15  F    0.000012  -0.001682   8.878175  -0.068000
    16  F   -0.000013  -0.007264  -0.068000   8.925940
 Mulliken charges:
               1
     1  C   -0.398565
     2  C    1.022726
     3  C   -0.600659
     4  C   -0.112798
     5  C   -0.324626
     6  C    0.125848
     7  O   -0.301561
     8  C   -0.041286
     9  H    0.173795
    10  H    0.175171
    11  H    0.246166
    12  H    0.170003
    13  H    0.164092
    14  F   -0.265699
    15  F    0.000836
    16  F   -0.033444
 Sum of Mulliken charges =  -0.00000
 Mulliken charges with hydrogens summed into heavy atoms:
               1
     1  C   -0.398565
     2  C    1.022726
     3  C   -0.426863
     4  C    0.051294
     5  C   -0.154624
     6  C    0.301019
     7  O   -0.301561
     8  C   -0.041286
    14  F   -0.019533
    15  F    0.000836
    16  F   -0.033444
 APT charges:
               1
     1  C    0.018351
     2  C   -0.169405
     3  C   -0.614829
     4  C   -0.541530
     5  C   -0.501247
     6  C   -0.712924
     7  O   -0.229298
     8  C   -0.193889
     9  H    0.496703
    10  H    0.656324
    11  H    0.081284
    12  H    0.824332
    13  H    0.753897
    14  F   -0.124385
    15  F    0.117083
    16  F    0.139532
 Sum of APT charges =  -0.00000
 APT charges with hydrogens summed into heavy atoms:
               1
     1  C    0.018351
     2  C   -0.169405
     3  C   -0.118126
     4  C    0.212367
     5  C    0.323086
     6  C   -0.056600
     7  O   -0.229298
     8  C   -0.193889
    14  F   -0.043101
    15  F    0.117083
    16  F    0.139532
 Electronic spatial extent (au):  <R**2>=           1640.7910
 Charge=             -0.0000 electrons
 Dipole moment (field-independent basis, Debye):
    X=             -4.0000    Y=             -3.1704    Z=              1.3590  Tot=              5.2819
 Quadrupole moment (field-independent basis, Debye-Ang):
   XX=            -56.7976   YY=            -61.3539   ZZ=            -64.9684
   XY=             -2.5278   XZ=              4.0254   YZ=              1.7136
 Traceless Quadrupole moment (field-independent basis, Debye-Ang):
   XX=              4.2424   YY=             -0.3139   ZZ=             -3.9284
   XY=             -2.5278   XZ=              4.0254   YZ=              1.7136
 Octapole moment (field-independent basis, Debye-Ang**2):
  XXX=             13.7082  YYY=            -13.3857  ZZZ=              5.8450  XYY=             10.3929
  XXY=             -3.6809  XXZ=              7.4075  XZZ=             20.1472  YZZ=             -1.7008
  YYZ=             -1.9035  XYZ=             -0.3550
 Hexadecapole moment (field-independent basis, Debye-Ang**3):
 XXXX=          -1087.1509 YYYY=           -596.0955 ZZZZ=           -172.9143 XXXY=            -29.6619
 XXXZ=             27.2176 YYYX=            -13.8212 YYYZ=              7.2090 ZZZX=             14.0947
 ZZZY=              3.6630 XXYY=           -280.0680 XXZZ=           -253.3839 YYZZ=           -131.3337
 XXYZ=             19.2205 YYXZ=              7.0755 ZZXY=            -16.0946
 N-N= 6.175382943631D+02 E-N=-2.753436794621D+03  KE= 6.424879221127D+02
  Exact polarizability:   0.000   0.000   0.000   0.000   0.000   0.000
 Approx polarizability: 132.181  -0.085 112.140   5.030   7.989  61.885

 This type of calculation cannot be archived.


 IF YOU WANT TO LEARN FROM THE THEORETICAL PHYSICISTS ABOUT THE
 METHODS WHICH THEY USE, I ADVISE YOU TO FOLLOW THIS PRINCIPLE VERY STRICTLY:
 DON'T LISTEN TO THEIR WORDS; PAY ATTENTION, INSTEAD, TO THEIR ACTIONS.
 -- A.EINSTEIN, 1934
 Job cpu time:       9 days  3 hours 20 minutes 52.1 seconds.
 Elapsed time:       0 days  6 hours 56 minutes 32.5 seconds.
 File lengths (MBytes):  RWF=    143 Int=      0 D2E=      0 Chk=     11 Scr=      1
 Normal termination of Gaussian 16 at Wed Mar 27 22:13:01 2024.
