 Entering Gaussian System, Link 0=g16
 Input=irc_asynchronous.com
 Output=irc_asynchronous.out
 Initial command:
 /share/apps/gaussian16/wu/g16/l1.exe "/scratch/4421987/Gau-182023.inp" -scrdir="/scratch/4421987/"
 Entering Link 1 = /share/apps/gaussian16/wu/g16/l1.exe PID=    182026.
  
 Copyright (c) 1988-2019, Gaussian, Inc.  All Rights Reserved.
  
 This is part of the Gaussian(R) 16 program.  It is based on
 the Gaussian(R) 09 system (copyright 2009, Gaussian, Inc.),
 the Gaussian(R) 03 system (copyright 2003, Gaussian, Inc.),
 the Gaussian(R) 98 system (copyright 1998, Gaussian, Inc.),
 the Gaussian(R) 94 system (copyright 1995, Gaussian, Inc.),
 the Gaussian 92(TM) system (copyright 1992, Gaussian, Inc.),
 the Gaussian 90(TM) system (copyright 1990, Gaussian, Inc.),
 the Gaussian 88(TM) system (copyright 1988, Gaussian, Inc.),
 the Gaussian 86(TM) system (copyright 1986, Carnegie Mellon
 University), and the Gaussian 82(TM) system (copyright 1983,
 Carnegie Mellon University). Gaussian is a federally registered
 trademark of Gaussian, Inc.
  
 This software contains proprietary and confidential information,
 including trade secrets, belonging to Gaussian, Inc.
  
 This software is provided under written license and may be
 used, copied, transmitted, or stored only in accord with that
 written license.
  
 The following legend is applicable only to US Government
 contracts under FAR:
  
                    RESTRICTED RIGHTS LEGEND
  
 Use, reproduction and disclosure by the US Government is
 subject to restrictions as set forth in subparagraphs (a)
 and (c) of the Commercial Computer Software - Restricted
 Rights clause in FAR 52.227-19.
  
 Gaussian, Inc.
 340 Quinnipiac St., Bldg. 40, Wallingford CT 06492
  
  
 ---------------------------------------------------------------
 Warning -- This program may not be used in any manner that
 competes with the business of Gaussian, Inc. or will provide
 assistance to any competitor of Gaussian, Inc.  The licensee
 of this program is prohibited from giving any competitor of
 Gaussian, Inc. access to this program.  By using this program,
 the user acknowledges that Gaussian, Inc. is engaged in the
 business of creating and licensing software in the field of
 computational chemistry and represents and warrants to the
 licensee that it is not a competitor of Gaussian, Inc. and that
 it will not use this program in any manner prohibited above.
 ---------------------------------------------------------------
  

 Cite this work as:
 Gaussian 16, Revision C.01,
 M. J. Frisch, G. W. Trucks, H. B. Schlegel, G. E. Scuseria, 
 M. A. Robb, J. R. Cheeseman, G. Scalmani, V. Barone, 
 G. A. Petersson, H. Nakatsuji, X. Li, M. Caricato, A. V. Marenich, 
 J. Bloino, B. G. Janesko, R. Gomperts, B. Mennucci, H. P. Hratchian, 
 J. V. Ortiz, A. F. Izmaylov, J. L. Sonnenberg, D. Williams-Young, 
 F. Ding, F. Lipparini, F. Egidi, J. Goings, B. Peng, A. Petrone, 
 T. Henderson, D. Ranasinghe, V. G. Zakrzewski, J. Gao, N. Rega, 
 G. Zheng, W. Liang, M. Hada, M. Ehara, K. Toyota, R. Fukuda, 
 J. Hasegawa, M. Ishida, T. Nakajima, Y. Honda, O. Kitao, H. Nakai, 
 T. Vreven, K. Throssell, J. A. Montgomery, Jr., J. E. Peralta, 
 F. Ogliaro, M. J. Bearpark, J. J. Heyd, E. N. Brothers, K. N. Kudin, 
 V. N. Staroverov, T. A. Keith, R. Kobayashi, J. Normand, 
 K. Raghavachari, A. P. Rendell, J. C. Burant, S. S. Iyengar, 
 J. Tomasi, M. Cossi, J. M. Millam, M. Klene, C. Adamo, R. Cammi, 
 J. W. Ochterski, R. L. Martin, K. Morokuma, O. Farkas, 
 J. B. Foresman, and D. J. Fox, Gaussian, Inc., Wallingford CT, 2019.
 
 ******************************************
 Gaussian 16:  ES64L-G16RevC.01  3-Jul-2019
                 3-Feb-2025 
 ******************************************
 %chk=irc_asynchronous.chk
 %mem=32GB
 %nprocshared=32
 Will use up to   32 processors via shared memory.
 ----------------------------------------------------------------------
 # irc=(calcall,maxpoints=80,stepsize=5) def2tzvpp empiricaldispersion=
 gd3bj scf=xqc guess=(mix,always) upbe1pbe
 ----------------------------------------------------------------------
 1/10=4,18=10,26=3,38=1,39=5,42=80,44=3,71=1,172=1/1,23;
 2/12=2,17=6,18=5,29=1,40=1/2;
 3/5=44,7=202,11=2,25=1,30=1,71=2,74=-13,116=2,124=41,140=1/1,2,3;
 4/13=-1/1;
 5/5=2,8=3,13=1,38=5/2,8;
 8/6=4,10=90,11=11/1;
 11/6=1,8=1,9=11,15=111,16=1/1,2,10;
 10/6=1,13=1/2;
 6/7=2,8=2,9=2,10=2,18=1,28=1/1;
 7/10=1,25=1/1,2,3,16;
 1/10=4,18=10,26=3,39=5,42=80,44=3,71=1/23(2);
 2/29=1/2;
 99/5=20/99;
 2/29=1/2;
 3/5=44,7=202,11=2,25=1,30=1,71=2,74=-13,116=2,124=41,140=1/1,2,3;
 4/13=-1/1;
 5/5=2,8=3,13=1,38=5/2,8;
 8/6=4,10=90,11=11/1;
 11/6=1,8=1,9=11,15=111,16=1/1,2,10;
 10/6=1,13=1/2;
 7/10=1,25=1/1,2,3,16;
 1/10=4,18=10,26=3,39=5,42=80,44=3,71=1/23(-8);
 2/29=1/2;
 6/7=2,8=2,9=2,10=2,18=1,19=2,28=1/1;
 99/5=20/99;
 ----------
 Title Card
 ----------
 Symbolic Z-matrix:
 Charge =  0 Multiplicity = 1
 C                     0.5145    1.34284  -0.00003 
 C                     1.19893  -0.04279   0.00003 
 C                     0.48187  -0.69752   1.16929 
 C                    -0.89396  -0.41054   0.85044 
 C                    -0.91424   0.82291  -0.00004 
 C                    -0.89393  -0.4106   -0.85044 
 C                     0.48191  -0.69759  -1.16922 
 H                     2.28446  -0.0576    0.00005 
 H                     0.74733   1.92226  -0.89523 
 H                    -1.77251   1.48131  -0.00008 
 H                     0.7473    1.92232   0.89514 
 H                    -1.76691  -0.79413  -1.35556 
 H                     0.83849  -1.56017  -1.71396 
 H                    -1.76696  -0.79406   1.35553 
 H                     0.8384   -1.56018   1.71392 
 
 IRC-IRC-IRC-IRC-IRC-IRC-IRC-IRC-IRC-IRC-IRC-IRC-IRC-IRC-IRC-IRC-IRC-IRC
 ------------------------------------------------------------------------
 INPUT DATA FOR L123
 ------------------------------------------------------------------------
 GENERAL PARAMETERS:
 Follow reaction path in both directions.
 Maximum points per path      =  80
 Step size                    =   0.050 bohr
 Integration scheme           = HPC                                 
    Redo corrector integration= Yes                                 
    DWI Weight Power          =  2
    DWI will use Hessian update vectors when possible.
    Max correction cycles     =  20
 Initial Hessian              = CalcFC
 Hessian evaluation           = Analytic at all predictor steps
                              = Update at all corrector steps
 Hessian updating method      = Bofill                              
 ------------------------------------------------------------------------
 IRC-IRC-IRC-IRC-IRC-IRC-IRC-IRC-IRC-IRC-IRC-IRC-IRC-IRC-IRC-IRC-IRC-IRC
                          Input orientation:                          
 ---------------------------------------------------------------------
 Center     Atomic      Atomic             Coordinates (Angstroms)
 Number     Number       Type             X           Y           Z
 ---------------------------------------------------------------------
      1          6           0        0.514500    1.342835   -0.000031
      2          6           0        1.198929   -0.042787    0.000025
      3          6           0        0.481869   -0.697515    1.169294
      4          6           0       -0.893964   -0.410540    0.850437
      5          6           0       -0.914243    0.822910   -0.000038
      6          6           0       -0.893933   -0.410602   -0.850438
      7          6           0        0.481911   -0.697593   -1.169219
      8          1           0        2.284461   -0.057601    0.000047
      9          1           0        0.747329    1.922259   -0.895234
     10          1           0       -1.772511    1.481309   -0.000078
     11          1           0        0.747301    1.922320    0.895141
     12          1           0       -1.766914   -0.794130   -1.355556
     13          1           0        0.838491   -1.560168   -1.713956
     14          1           0       -1.766963   -0.794056    1.355534
     15          1           0        0.838397   -1.560183    1.713923
 ---------------------------------------------------------------------
                    Distance matrix (angstroms):
                    1          2          3          4          5
     1  C    0.000000
     2  C    1.545442   0.000000
     3  C    2.351896   1.519880   0.000000
     4  C    2.404452   2.288808   1.441160   0.000000
     5  C    1.520404   2.283622   2.372374   1.498372   0.000000
     6  C    2.404458   2.288809   2.460583   1.700875   1.498381
     7  C    2.351895   1.519874   2.338513   2.460578   2.372374
     8  H    2.256985   1.085633   2.241867   3.309096   3.317681
     9  H    1.091481   2.206091   3.346037   3.344123   2.184208
    10  H    2.291199   3.339510   3.346182   2.252624   1.081718
    11  H    1.091482   2.206093   2.647480   2.852715   2.184211
    12  H    3.407186   3.346392   3.382488   2.403245   2.275807
    13  H    3.386729   2.317346   3.030591   3.301387   3.418867
    14  H    3.407188   3.346390   2.258595   1.079043   2.275804
    15  H    3.386748   2.317309   1.080708   2.251302   3.418851
                    6          7          8          9         10
     6  C    0.000000
     7  C    1.441156   0.000000
     8  H    3.309097   2.241865   0.000000
     9  H    2.852716   2.647478   2.661606   0.000000
    10  H    2.252629   3.346180   4.339040   2.710228   0.000000
    11  H    3.344132   3.346036   2.661605   1.790375   2.710233
    12  H    1.079043   2.258596   4.335179   3.729891   2.648580
    13  H    2.251324   1.080705   2.699323   3.578535   4.359506
    14  H    2.403233   3.382472   4.335176   4.331973   2.648585
    15  H    3.301280   3.030454   2.699301   4.352401   4.359508
                   11         12         13         14         15
    11  H    0.000000
    12  H    4.331976   0.000000
    13  H    4.352405   2.739233   0.000000
    14  H    3.729904   2.711090   4.098425   0.000000
    15  H    3.578621   4.098315   3.427879   2.739214   0.000000
 Symmetry turned off by external request.
 Stoichiometry    C7H8
 Framework group  C1[X(C7H8)]
 Deg. of freedom    39
 Full point group                 C1      NOp   1
 Rotational constants (GHZ):           4.1171786           3.7766376           3.7746374
 Standard basis: def2TZVPP (5D, 7F)
   329 basis functions,   493 primitive gaussians,   372 cartesian basis functions
    25 alpha electrons       25 beta electrons
       nuclear repulsion energy       293.2710965254 Hartrees.
 NAtoms=   15 NActive=   15 NUniq=   15 SFac= 1.00D+00 NAtFMM=   60 NAOKFM=F Big=F
 Integral buffers will be    131072 words long.
 Raffenetti 2 integral format.
 Two-electron integral symmetry is turned off.
 Nuclear repulsion after empirical dispersion term =      293.2587027258 Hartrees.
 One-electron integrals computed using PRISM.
   1 Symmetry operations used in ECPInt.
 ECPInt:  NShTT=    7875 NPrTT=   21088 LenC2=    7855 LenP2D=   18171.
 LDataN:  DoStor=T MaxTD1= 6 Len=  172
 NBasis=   329 RedAO= T EigKep=  4.92D-05  NBF=   329
 NBsUse=   329 1.00D-06 EigRej= -1.00D+00 NBFU=   329
 ExpMin= 9.52D-02 ExpMax= 1.36D+04 ExpMxC= 4.63D+02 IAcc=3 IRadAn=         5 AccDes= 0.00D+00
 Harris functional with IExCor= 1009 and IRadAn=       5 diagonalized for initial guess.
 HarFok:  IExCor= 1009 AccDes= 0.00D+00 IRadAn=         5 IDoV= 1 UseB2=F ITyADJ=14
 ICtDFT=  3500011 ScaDFX=  1.000000  1.000000  1.000000  1.000000
 FoFCou: FMM=F IPFlag=           0 FMFlag=      100000 FMFlg1=           0
         NFxFlg=           0 DoJE=T BraDBF=F KetDBF=T FulRan=T
         wScrn=  0.000000 ICntrl=       500 IOpCl=  0 I1Cent=   200000004 NGrid=           0
         NMat0=    1 NMatS0=      1 NMatT0=    0 NMatD0=    1 NMtDS0=    0 NMtDT0=    0
 Symmetry not used in FoFCou.
 Mixing orbitals, IMix= 1 IMixAn=  0 NRI=1 NE=   25 Coef=  7.07106781D-01  7.07106781D-01
 Mixing orbitals, IMix= 1 IMixAn=  0 NRI=1 NE=   25 Coef= -7.07106781D-01  7.07106781D-01
 Initial guess <Sx>= 0.0000 <Sy>= 0.0000 <Sz>= 0.0000 <S**2>= 1.0000 S= 0.6180
 Requested convergence on RMS density matrix=1.00D-08 within  32 cycles.
 Requested convergence on MAX density matrix=1.00D-06.
 Requested convergence on             energy=1.00D-06.
 No special actions if energy rises.
 Integral accuracy reduced to 1.0D-05 until final iterations.
 Initial convergence to 1.0D-05 achieved.  Increase integral accuracy.
 SCF Done:  E(UPBE1PBE) =  -271.184652943     A.U. after   16 cycles
            NFock= 16  Conv=0.25D-08     -V/T= 2.0051
 <Sx>= 0.0000 <Sy>= 0.0000 <Sz>= 0.0000 <S**2>= 1.0109 S= 0.6229
 <L.S>=  0.00000000000    
 Annihilation of the first spin contaminant:
 S**2 before annihilation     1.0109,   after     0.1886
 QCSCF skips out because SCF is already converged.
 DoSCS=F DFT=T ScalE2(SS,OS)=  1.000000  1.000000
 Range of M.O.s used for correlation:     1   329
 NBasis=   329 NAE=    25 NBE=    25 NFC=     0 NFV=     0
 NROrb=    329 NOA=    25 NOB=    25 NVA=   304 NVB=   304

 **** Warning!!: The largest alpha MO coefficient is  0.33704757D+02


 **** Warning!!: The largest beta MO coefficient is  0.33696596D+02

   1 Symmetry operations used in ECPInt.
 ECPInt:  NShTT=    7875 NPrTT=   21088 LenC2=    7855 LenP2D=   18171.
 LDataN:  DoStor=T MaxTD1= 7 Len=  274
 Symmetrizing basis deriv contribution to polar:
 IMax=3 JMax=2 DiffMx= 0.00D+00
 G2DrvN: will do    16 centers at a time, making    1 passes.
 Calling FoFCou, ICntrl=  3107 FMM=F I1Cent=   0 AccDes= 0.00D+00.
 End of G2Drv F.D. properties file   721 does not exist.
 End of G2Drv F.D. properties file   722 does not exist.
 End of G2Drv F.D. properties file   788 does not exist.
          IDoAtm=111111111111111
          Differentiating once with respect to nuclear coordinates.
 Keep R1 and R2 ints in memory in canonical form, NReq=2983874486.
          There are    48 degrees of freedom in the 1st order CPHF.  IDoFFX=6 NUNeed=     0.
     42 vectors produced by pass  0 Test12= 3.17D-14 2.08D-09 XBig12= 2.57D-01 1.85D-01.
 AX will form    42 AO Fock derivatives at one time.
     42 vectors produced by pass  1 Test12= 3.17D-14 2.08D-09 XBig12= 2.09D-02 2.68D-02.
     42 vectors produced by pass  2 Test12= 3.17D-14 2.08D-09 XBig12= 8.92D-04 6.03D-03.
     42 vectors produced by pass  3 Test12= 3.17D-14 2.08D-09 XBig12= 1.04D-05 4.52D-04.
     42 vectors produced by pass  4 Test12= 3.17D-14 2.08D-09 XBig12= 1.43D-07 3.55D-05.
     42 vectors produced by pass  5 Test12= 3.17D-14 2.08D-09 XBig12= 1.55D-09 3.26D-06.
     41 vectors produced by pass  6 Test12= 3.17D-14 2.08D-09 XBig12= 9.83D-12 3.67D-07.
     18 vectors produced by pass  7 Test12= 3.17D-14 2.08D-09 XBig12= 4.90D-14 2.19D-08.
 InvSVY:  IOpt=1 It=  1 EMax= 2.66D-15
 Solved reduced A of dimension   311 with    42 vectors.
 End of Minotr F.D. properties file   721 does not exist.
 End of Minotr F.D. properties file   722 does not exist.
 End of Minotr F.D. properties file   788 does not exist.

 **********************************************************************

            Population analysis using the SCF Density.

 **********************************************************************

 Alpha  occ. eigenvalues --  -10.23963 -10.23458 -10.23408 -10.23095 -10.22649
 Alpha  occ. eigenvalues --  -10.21980 -10.21358  -0.94756  -0.76994  -0.73165
 Alpha  occ. eigenvalues --   -0.72075  -0.57754  -0.55722  -0.55129  -0.54359
 Alpha  occ. eigenvalues --   -0.47974  -0.43334  -0.40698  -0.40224  -0.37715
 Alpha  occ. eigenvalues --   -0.35973  -0.34927  -0.31783  -0.30296  -0.18931
 Alpha virt. eigenvalues --   -0.04116   0.05718   0.08618   0.09618   0.10233
 Alpha virt. eigenvalues --    0.10923   0.11165   0.11450   0.12002   0.14622
 Alpha virt. eigenvalues --    0.14752   0.16835   0.16968   0.17994   0.19058
 Alpha virt. eigenvalues --    0.20575   0.21570   0.22665   0.23495   0.26320
 Alpha virt. eigenvalues --    0.26983   0.27609   0.28805   0.30262   0.34502
 Alpha virt. eigenvalues --    0.35103   0.36350   0.37192   0.38917   0.39599
 Alpha virt. eigenvalues --    0.41235   0.41426   0.41777   0.43202   0.43730
 Alpha virt. eigenvalues --    0.43917   0.44926   0.45339   0.45696   0.47772
 Alpha virt. eigenvalues --    0.48008   0.48188   0.48577   0.49564   0.51520
 Alpha virt. eigenvalues --    0.53779   0.56346   0.56915   0.59468   0.62919
 Alpha virt. eigenvalues --    0.63870   0.64806   0.68607   0.70777   0.75782
 Alpha virt. eigenvalues --    0.80268   0.81504   0.82172   0.84240   0.84385
 Alpha virt. eigenvalues --    0.90202   0.91726   0.92988   0.93267   0.94210
 Alpha virt. eigenvalues --    0.96222   0.96466   0.97544   1.00013   1.01331
 Alpha virt. eigenvalues --    1.01869   1.03622   1.05343   1.05649   1.06713
 Alpha virt. eigenvalues --    1.07489   1.10221   1.11239   1.12558   1.12931
 Alpha virt. eigenvalues --    1.15417   1.16429   1.18031   1.18419   1.20944
 Alpha virt. eigenvalues --    1.23676   1.24677   1.27288   1.29201   1.30047
 Alpha virt. eigenvalues --    1.31082   1.32889   1.33852   1.35853   1.38198
 Alpha virt. eigenvalues --    1.40104   1.41246   1.42436   1.43631   1.46932
 Alpha virt. eigenvalues --    1.47335   1.50588   1.51149   1.52109   1.53116
 Alpha virt. eigenvalues --    1.54692   1.58577   1.61370   1.63227   1.66153
 Alpha virt. eigenvalues --    1.66404   1.71433   1.72439   1.76970   1.78241
 Alpha virt. eigenvalues --    1.79020   1.83184   1.85463   1.88199   1.89113
 Alpha virt. eigenvalues --    1.94054   1.95292   2.00293   2.02921   2.08640
 Alpha virt. eigenvalues --    2.10622   2.12416   2.15258   2.18929   2.22586
 Alpha virt. eigenvalues --    2.26779   2.27098   2.35760   2.39575   2.42899
 Alpha virt. eigenvalues --    2.43077   2.46478   2.49450   2.52080   2.53248
 Alpha virt. eigenvalues --    2.55264   2.59837   2.61816   2.63158   2.67167
 Alpha virt. eigenvalues --    2.68569   2.68721   2.74045   2.74427   2.75854
 Alpha virt. eigenvalues --    2.76495   2.78137   2.80122   2.81252   2.84483
 Alpha virt. eigenvalues --    2.85991   2.86560   2.87543   2.91405   2.92893
 Alpha virt. eigenvalues --    2.96238   2.96722   2.99410   3.01486   3.02574
 Alpha virt. eigenvalues --    3.04981   3.07348   3.08019   3.11504   3.13275
 Alpha virt. eigenvalues --    3.14827   3.15964   3.16840   3.17662   3.18665
 Alpha virt. eigenvalues --    3.22356   3.23013   3.24544   3.27656   3.30024
 Alpha virt. eigenvalues --    3.30126   3.31104   3.32212   3.33035   3.37273
 Alpha virt. eigenvalues --    3.37831   3.39563   3.40117   3.43236   3.43349
 Alpha virt. eigenvalues --    3.45497   3.46456   3.48327   3.51762   3.55503
 Alpha virt. eigenvalues --    3.56311   3.58626   3.61225   3.63400   3.63945
 Alpha virt. eigenvalues --    3.64567   3.64847   3.67247   3.68311   3.71117
 Alpha virt. eigenvalues --    3.72134   3.72848   3.75630   3.77392   3.81167
 Alpha virt. eigenvalues --    3.81684   3.82580   3.85800   3.86877   3.87121
 Alpha virt. eigenvalues --    3.91549   3.91598   3.93205   3.95560   3.96899
 Alpha virt. eigenvalues --    3.97491   3.97955   3.98936   4.02012   4.02232
 Alpha virt. eigenvalues --    4.04960   4.05398   4.09303   4.09607   4.12612
 Alpha virt. eigenvalues --    4.14597   4.15891   4.16965   4.18993   4.21219
 Alpha virt. eigenvalues --    4.21328   4.22139   4.26257   4.26650   4.29519
 Alpha virt. eigenvalues --    4.33840   4.35103   4.36291   4.37354   4.40680
 Alpha virt. eigenvalues --    4.40992   4.42909   4.44413   4.47817   4.53853
 Alpha virt. eigenvalues --    4.54065   4.59285   4.61442   4.65339   4.67905
 Alpha virt. eigenvalues --    4.68923   4.70152   4.72470   4.74738   4.82738
 Alpha virt. eigenvalues --    4.85039   4.86568   4.89308   4.90290   4.91496
 Alpha virt. eigenvalues --    4.91553   4.93145   4.96342   4.97314   5.00671
 Alpha virt. eigenvalues --    5.03059   5.05019   5.05243   5.11588   5.11931
 Alpha virt. eigenvalues --    5.13371   5.15217   5.17201   5.17943   5.24896
 Alpha virt. eigenvalues --    5.27480   5.35399   5.40621   5.43406   5.47997
 Alpha virt. eigenvalues --    5.49571   5.54921   5.65367   5.67401   5.68415
 Alpha virt. eigenvalues --    5.69751   5.76219   5.79095   5.80610   5.83541
 Alpha virt. eigenvalues --    5.93707   5.95835  22.95124  23.03584  23.14463
 Alpha virt. eigenvalues --   23.31121  23.40253  23.54941  23.71597
  Beta  occ. eigenvalues --  -10.23963 -10.23458 -10.23408 -10.23095 -10.22649
  Beta  occ. eigenvalues --  -10.21980 -10.21359  -0.94756  -0.76994  -0.73165
  Beta  occ. eigenvalues --   -0.72075  -0.57754  -0.55722  -0.55129  -0.54359
  Beta  occ. eigenvalues --   -0.47974  -0.43334  -0.40698  -0.40223  -0.37715
  Beta  occ. eigenvalues --   -0.35973  -0.34927  -0.31783  -0.30296  -0.18930
  Beta virt. eigenvalues --   -0.04117   0.05718   0.08618   0.09618   0.10233
  Beta virt. eigenvalues --    0.10923   0.11165   0.11450   0.12002   0.14622
  Beta virt. eigenvalues --    0.14752   0.16835   0.16968   0.17994   0.19058
  Beta virt. eigenvalues --    0.20576   0.21570   0.22665   0.23495   0.26321
  Beta virt. eigenvalues --    0.26983   0.27609   0.28805   0.30261   0.34502
  Beta virt. eigenvalues --    0.35104   0.36350   0.37192   0.38917   0.39599
  Beta virt. eigenvalues --    0.41235   0.41425   0.41777   0.43202   0.43730
  Beta virt. eigenvalues --    0.43917   0.44926   0.45339   0.45696   0.47772
  Beta virt. eigenvalues --    0.48008   0.48188   0.48577   0.49564   0.51520
  Beta virt. eigenvalues --    0.53779   0.56346   0.56915   0.59468   0.62919
  Beta virt. eigenvalues --    0.63870   0.64806   0.68607   0.70777   0.75781
  Beta virt. eigenvalues --    0.80268   0.81505   0.82172   0.84240   0.84385
  Beta virt. eigenvalues --    0.90202   0.91726   0.92988   0.93267   0.94210
  Beta virt. eigenvalues --    0.96223   0.96465   0.97544   1.00014   1.01331
  Beta virt. eigenvalues --    1.01869   1.03622   1.05343   1.05649   1.06713
  Beta virt. eigenvalues --    1.07489   1.10221   1.11239   1.12558   1.12931
  Beta virt. eigenvalues --    1.15417   1.16429   1.18031   1.18418   1.20944
  Beta virt. eigenvalues --    1.23676   1.24677   1.27288   1.29201   1.30047
  Beta virt. eigenvalues --    1.31082   1.32889   1.33852   1.35853   1.38198
  Beta virt. eigenvalues --    1.40104   1.41246   1.42436   1.43632   1.46933
  Beta virt. eigenvalues --    1.47334   1.50589   1.51149   1.52111   1.53114
  Beta virt. eigenvalues --    1.54691   1.58577   1.61370   1.63227   1.66153
  Beta virt. eigenvalues --    1.66403   1.71433   1.72439   1.76969   1.78242
  Beta virt. eigenvalues --    1.79020   1.83184   1.85463   1.88199   1.89113
  Beta virt. eigenvalues --    1.94054   1.95292   2.00293   2.02921   2.08640
  Beta virt. eigenvalues --    2.10622   2.12416   2.15258   2.18929   2.22587
  Beta virt. eigenvalues --    2.26780   2.27098   2.35760   2.39575   2.42901
  Beta virt. eigenvalues --    2.43075   2.46478   2.49450   2.52080   2.53248
  Beta virt. eigenvalues --    2.55264   2.59837   2.61816   2.63157   2.67167
  Beta virt. eigenvalues --    2.68569   2.68721   2.74047   2.74425   2.75855
  Beta virt. eigenvalues --    2.76494   2.78138   2.80122   2.81251   2.84484
  Beta virt. eigenvalues --    2.85991   2.86560   2.87543   2.91405   2.92893
  Beta virt. eigenvalues --    2.96238   2.96722   2.99410   3.01486   3.02574
  Beta virt. eigenvalues --    3.04980   3.07348   3.08020   3.11504   3.13275
  Beta virt. eigenvalues --    3.14828   3.15964   3.16841   3.17662   3.18665
  Beta virt. eigenvalues --    3.22355   3.23013   3.24544   3.27656   3.30024
  Beta virt. eigenvalues --    3.30126   3.31104   3.32213   3.33033   3.37273
  Beta virt. eigenvalues --    3.37831   3.39564   3.40117   3.43234   3.43351
  Beta virt. eigenvalues --    3.45497   3.46456   3.48327   3.51762   3.55503
  Beta virt. eigenvalues --    3.56311   3.58626   3.61225   3.63400   3.63946
  Beta virt. eigenvalues --    3.64566   3.64848   3.67246   3.68311   3.71118
  Beta virt. eigenvalues --    3.72134   3.72848   3.75630   3.77392   3.81166
  Beta virt. eigenvalues --    3.81685   3.82580   3.85800   3.86877   3.87121
  Beta virt. eigenvalues --    3.91549   3.91598   3.93205   3.95560   3.96898
  Beta virt. eigenvalues --    3.97491   3.97956   3.98936   4.02013   4.02231
  Beta virt. eigenvalues --    4.04960   4.05398   4.09302   4.09609   4.12613
  Beta virt. eigenvalues --    4.14596   4.15891   4.16965   4.18994   4.21219
  Beta virt. eigenvalues --    4.21328   4.22139   4.26257   4.26650   4.29519
  Beta virt. eigenvalues --    4.33840   4.35103   4.36291   4.37354   4.40680
  Beta virt. eigenvalues --    4.40992   4.42909   4.44413   4.47817   4.53853
  Beta virt. eigenvalues --    4.54065   4.59285   4.61442   4.65339   4.67905
  Beta virt. eigenvalues --    4.68923   4.70152   4.72469   4.74738   4.82738
  Beta virt. eigenvalues --    4.85039   4.86567   4.89308   4.90290   4.91496
  Beta virt. eigenvalues --    4.91554   4.93145   4.96342   4.97314   5.00670
  Beta virt. eigenvalues --    5.03060   5.05019   5.05242   5.11589   5.11931
  Beta virt. eigenvalues --    5.13371   5.15217   5.17201   5.17943   5.24896
  Beta virt. eigenvalues --    5.27480   5.35399   5.40621   5.43406   5.47997
  Beta virt. eigenvalues --    5.49571   5.54921   5.65367   5.67401   5.68415
  Beta virt. eigenvalues --    5.69751   5.76219   5.79095   5.80610   5.83541
  Beta virt. eigenvalues --    5.93707   5.95834  22.95125  23.03584  23.14463
  Beta virt. eigenvalues --   23.31121  23.40253  23.54941  23.71597
          Condensed to atoms (all electrons):
               1          2          3          4          5          6
     1  C    4.741531   0.339750  -0.031071  -0.069519   0.427401  -0.069514
     2  C    0.339750   4.734594   0.381816  -0.065219  -0.042598  -0.065239
     3  C   -0.031071   0.381816   5.261166   0.459899  -0.069515  -0.090095
     4  C   -0.069519  -0.065219   0.459899   5.103462   0.197593   0.205266
     5  C    0.427401  -0.042598  -0.069515   0.197593   5.044515   0.197601
     6  C   -0.069514  -0.065239  -0.090095   0.205266   0.197601   5.103456
     7  C   -0.031061   0.381797  -0.102698  -0.090121  -0.069496   0.459887
     8  H   -0.022320   0.402131  -0.031127   0.011098   0.002945   0.011098
     9  H    0.414976  -0.024551   0.008018   0.013308  -0.038825  -0.000751
    10  H   -0.026099   0.005459   0.005767  -0.029183   0.419767  -0.029185
    11  H    0.414977  -0.024553   0.001311  -0.000751  -0.038823   0.013308
    12  H    0.004872   0.005766   0.004625  -0.013542  -0.030707   0.424695
    13  H    0.007324  -0.040567   0.005947  -0.004348   0.015119  -0.045562
    14  H    0.004873   0.005765  -0.029751   0.424696  -0.030706  -0.013546
    15  H    0.007324  -0.040569   0.423847  -0.045562   0.015121  -0.004351
               7          8          9         10         11         12
     1  C   -0.031061  -0.022320   0.414976  -0.026099   0.414977   0.004872
     2  C    0.381797   0.402131  -0.024551   0.005459  -0.024553   0.005766
     3  C   -0.102698  -0.031127   0.008018   0.005767   0.001311   0.004625
     4  C   -0.090121   0.011098   0.013308  -0.029183  -0.000751  -0.013542
     5  C   -0.069496   0.002945  -0.038825   0.419767  -0.038823  -0.030707
     6  C    0.459887   0.011098  -0.000751  -0.029185   0.013308   0.424695
     7  C    5.261247  -0.031130   0.001312   0.005767   0.008018  -0.029753
     8  H   -0.031130   0.598204  -0.002109  -0.000244  -0.002110  -0.000204
     9  H    0.001312  -0.002109   0.591980  -0.002313  -0.025290   0.000256
    10  H    0.005767  -0.000244  -0.002313   0.579904  -0.002313  -0.004852
    11  H    0.008018  -0.002110  -0.025290  -0.002313   0.591980  -0.000187
    12  H   -0.029753  -0.000204   0.000256  -0.004852  -0.000187   0.550361
    13  H    0.423847  -0.003093  -0.000624  -0.000112  -0.000332  -0.003567
    14  H    0.004625  -0.000204  -0.000187  -0.004852   0.000256  -0.004276
    15  H    0.005950  -0.003093  -0.000332  -0.000112  -0.000624   0.000153
              13         14         15
     1  C    0.007324   0.004873   0.007324
     2  C   -0.040567   0.005765  -0.040569
     3  C    0.005947  -0.029751   0.423847
     4  C   -0.004348   0.424696  -0.045562
     5  C    0.015119  -0.030706   0.015121
     6  C   -0.045562  -0.013546  -0.004351
     7  C    0.423847   0.004625   0.005950
     8  H   -0.003093  -0.000204  -0.003093
     9  H   -0.000624  -0.000187  -0.000332
    10  H   -0.000112  -0.004852  -0.000112
    11  H   -0.000332   0.000256  -0.000624
    12  H   -0.003567  -0.004276   0.000153
    13  H    0.554381   0.000153   0.000744
    14  H    0.000153   0.550363  -0.003568
    15  H    0.000744  -0.003568   0.554405
          Atomic-Atomic Spin Densities.
               1          2          3          4          5          6
     1  C   -0.000017   0.000008  -0.005509   0.010847  -0.000009  -0.010839
     2  C    0.000008   0.000002  -0.033235  -0.010301   0.000011   0.010288
     3  C   -0.005509  -0.033235   1.044992  -0.062590   0.015697  -0.083012
     4  C    0.010847  -0.010301  -0.062590  -0.457664   0.102930  -0.000016
     5  C   -0.000009   0.000011   0.015697   0.102930  -0.000048  -0.102898
     6  C   -0.010839   0.010288  -0.083012  -0.000016  -0.102898   0.457677
     7  C    0.005513   0.033233   0.000012   0.083023  -0.015701   0.062591
     8  H    0.000001  -0.000000   0.000525   0.000046   0.000000  -0.000047
     9  H    0.003191   0.003209  -0.000845  -0.001969   0.000796   0.002012
    10  H    0.000001  -0.000001  -0.001127  -0.004552   0.000003   0.004550
    11  H   -0.003189  -0.003210   0.008269  -0.002012  -0.000794   0.001969
    12  H    0.000554  -0.000727   0.001902   0.000368   0.002469  -0.001976
    13  H   -0.001560   0.002177   0.010593   0.006525  -0.001779  -0.001530
    14  H   -0.000554   0.000727  -0.000657   0.001976  -0.002466  -0.000371
    15  H    0.001558  -0.002172   0.017581   0.001533   0.001778  -0.006526
               7          8          9         10         11         12
     1  C    0.005513   0.000001   0.003191   0.000001  -0.003189   0.000554
     2  C    0.033233  -0.000000   0.003209  -0.000001  -0.003210  -0.000727
     3  C    0.000012   0.000525  -0.000845  -0.001127   0.008269   0.001902
     4  C    0.083023   0.000046  -0.001969  -0.004552  -0.002012   0.000368
     5  C   -0.015701   0.000000   0.000796   0.000003  -0.000794   0.002469
     6  C    0.062591  -0.000047   0.002012   0.004550   0.001969  -0.001976
     7  C   -1.045034  -0.000526  -0.008270   0.001127   0.000845   0.000657
     8  H   -0.000526   0.000000   0.000198  -0.000000  -0.000198  -0.000021
     9  H   -0.008270   0.000198  -0.000829  -0.000458  -0.000000  -0.000041
    10  H    0.001127  -0.000000  -0.000458  -0.000001   0.000458  -0.000556
    11  H    0.000845  -0.000198  -0.000000   0.000458   0.000828  -0.000007
    12  H    0.000657  -0.000021  -0.000041  -0.000556  -0.000007  -0.014251
    13  H   -0.017587  -0.000107   0.000167   0.000037  -0.000042   0.000412
    14  H   -0.001903   0.000021   0.000007   0.000556   0.000041   0.000000
    15  H   -0.010597   0.000108   0.000042  -0.000037  -0.000167   0.000099
              13         14         15
     1  C   -0.001560  -0.000554   0.001558
     2  C    0.002177   0.000727  -0.002172
     3  C    0.010593  -0.000657   0.017581
     4  C    0.006525   0.001976   0.001533
     5  C   -0.001779  -0.002466   0.001778
     6  C   -0.001530  -0.000371  -0.006526
     7  C   -0.017587  -0.001903  -0.010597
     8  H   -0.000107   0.000021   0.000108
     9  H    0.000167   0.000007   0.000042
    10  H    0.000037   0.000556  -0.000037
    11  H   -0.000042   0.000041  -0.000167
    12  H    0.000412   0.000000   0.000099
    13  H    0.045322  -0.000099  -0.000000
    14  H   -0.000099   0.014251  -0.000411
    15  H   -0.000000  -0.000411  -0.045305
 Mulliken charges and spin densities:
               1          2
     1  C   -0.113445  -0.000005
     2  C    0.046215   0.000009
     3  C   -0.198141   0.912597
     4  C   -0.097079  -0.331855
     5  C    0.000609  -0.000013
     6  C   -0.097068   0.331871
     7  C   -0.198192  -0.912616
     8  H    0.070157   0.000000
     9  H    0.065132  -0.002792
    10  H    0.082603  -0.000000
    11  H    0.065133   0.002791
    12  H    0.096360  -0.011119
    13  H    0.090692   0.042529
    14  H    0.096357   0.011119
    15  H    0.090668  -0.042516
 Sum of Mulliken charges =  -0.00000  -0.00000
 Mulliken charges and spin densities with hydrogens summed into heavy atoms:
               1          2
     1  C    0.016819  -0.000005
     2  C    0.116372   0.000009
     3  C   -0.107474   0.870081
     4  C   -0.000722  -0.320736
     5  C    0.083212  -0.000013
     6  C   -0.000707   0.320752
     7  C   -0.107501  -0.870087
 APT charges:
               1
     1  C   -0.771971
     2  C   -0.406055
     3  C   -0.544293
     4  C   -0.502562
     5  C   -0.326299
     6  C   -0.502558
     7  C   -0.544343
     8  H    0.423921
     9  H    0.373960
    10  H    0.456988
    11  H    0.373962
    12  H    0.487526
    13  H    0.497123
    14  H    0.487522
    15  H    0.497079
 Sum of APT charges =  -0.00000
 APT charges with hydrogens summed into heavy atoms:
               1
     1  C   -0.024048
     2  C    0.017867
     3  C   -0.047214
     4  C   -0.015040
     5  C    0.130689
     6  C   -0.015032
     7  C   -0.047221
 Electronic spatial extent (au):  <R**2>=            519.6549
 Charge=             -0.0000 electrons
 Dipole moment (field-independent basis, Debye):
    X=             -0.4892    Y=             -0.1270    Z=             -0.0002  Tot=              0.5054
 Quadrupole moment (field-independent basis, Debye-Ang):
   XX=            -39.3667   YY=            -41.2312   ZZ=            -44.6506
   XY=             -0.3949   XZ=             -0.0001   YZ=              0.0000
 Traceless Quadrupole moment (field-independent basis, Debye-Ang):
   XX=              2.3828   YY=              0.5183   ZZ=             -2.9011
   XY=             -0.3949   XZ=             -0.0001   YZ=              0.0000
 Octapole moment (field-independent basis, Debye-Ang**2):
  XXX=             -3.6594  YYY=              1.6703  ZZZ=             -0.0017  XYY=              0.5508
  XXY=             -0.8806  XXZ=             -0.0003  XZZ=             -1.8559  YZZ=             -3.5227
  YYZ=             -0.0002  XYZ=              0.0002
 Hexadecapole moment (field-independent basis, Debye-Ang**3):
 XXXX=           -245.8962 YYYY=           -235.1917 ZZZZ=           -250.0984 XXXY=             -0.3722
 XXXZ=              0.0001 YYYX=             -4.9521 YYYZ=             -0.0000 ZZZX=             -0.0012
 ZZZY=              0.0008 XXYY=            -79.4212 XXZZ=            -80.5919 YYZZ=            -69.1093
 XXYZ=              0.0001 YYXZ=              0.0001 ZZXY=              1.1771
 N-N= 2.932587027258D+02 E-N=-1.215357988516D+03  KE= 2.698004692875D+02
  Exact polarizability:       0.000       0.000       0.000       0.000       0.000       0.000
 Approx polarizability:     103.949      -2.185      95.357       0.000       0.001     113.005
                          Isotropic Fermi Contact Couplings
        Atom                 a.u.       MegaHertz       Gauss      10(-4) cm-1
     1  C(13)             -0.00001      -0.00315      -0.00112      -0.00105
     2  C(13)              0.00000       0.00251       0.00090       0.00084
     3  C(13)              0.07712      43.34628      15.46703      14.45876
     4  C(13)             -0.05491     -30.86667     -11.01399     -10.29601
     5  C(13)             -0.00001      -0.00354      -0.00126      -0.00118
     6  C(13)              0.05493      30.87319      11.01632      10.29819
     7  C(13)             -0.07707     -43.32198     -15.45836     -14.45066
     8  H(1)               0.00000       0.00056       0.00020       0.00019
     9  H(1)              -0.00006      -0.13854      -0.04943      -0.04621
    10  H(1)              -0.00000      -0.00027      -0.00010      -0.00009
    11  H(1)               0.00006       0.13843       0.04939       0.04617
    12  H(1)              -0.00336      -7.51704      -2.68227      -2.50741
    13  H(1)               0.00880      19.66886       7.01834       6.56083
    14  H(1)               0.00336       7.51758       2.68246       2.50759
    15  H(1)              -0.00880     -19.65847      -7.01463      -6.55736
 --------------------------------------------------------
       Center         ----  Spin Dipole Couplings  ----
                      3XX-RR        3YY-RR        3ZZ-RR
 --------------------------------------------------------
     1   Atom       -0.000001     -0.000005      0.000006
     2   Atom       -0.000002     -0.000003      0.000004
     3   Atom       -0.458435      0.242707      0.215729
     4   Atom        0.176039      0.017421     -0.193460
     5   Atom        0.000008     -0.000002     -0.000006
     6   Atom       -0.176040     -0.017446      0.193486
     7   Atom        0.458456     -0.242795     -0.215661
     8   Atom        0.000001     -0.000001      0.000000
     9   Atom        0.006141     -0.010463      0.004322
    10   Atom       -0.000001     -0.000000      0.000001
    11   Atom       -0.006141      0.010462     -0.004321
    12   Atom       -0.002814     -0.003771      0.006586
    13   Atom        0.046460     -0.040579     -0.005881
    14   Atom        0.002814      0.003770     -0.006584
    15   Atom       -0.046458      0.040585      0.005873
 --------------------------------------------------------
                        XY            XZ            YZ
 --------------------------------------------------------
     1   Atom        0.000007      0.025756     -0.032251
     2   Atom       -0.000000     -0.014161     -0.004383
     3   Atom        0.160700      0.193460      0.737930
     4   Atom       -0.007548      0.000751     -0.220233
     5   Atom        0.000002      0.006000     -0.091002
     6   Atom        0.007563      0.000728     -0.220228
     7   Atom       -0.160687      0.193428      0.737957
     8   Atom       -0.000001     -0.019767     -0.004201
     9   Atom        0.000264     -0.001463     -0.007287
    10   Atom        0.000001      0.000896     -0.003292
    11   Atom       -0.000264     -0.001463     -0.007289
    12   Atom        0.011444      0.012765     -0.003969
    13   Atom        0.021200      0.029806     -0.014447
    14   Atom       -0.011442      0.012766     -0.003969
    15   Atom       -0.021199      0.029801     -0.014448
 --------------------------------------------------------


 ---------------------------------------------------------------------------------
              Anisotropic Spin Dipole Couplings in Principal Axis System
 ---------------------------------------------------------------------------------

       Atom             a.u.   MegaHertz   Gauss  10(-4) cm-1        Axes

              Baa    -0.0413    -5.539    -1.976    -1.848 -0.4413  0.5526  0.7070
     1 C(13)  Bbb     0.0000     0.001     0.000     0.000  0.7814  0.6240 -0.0000
              Bcc     0.0413     5.538     1.976     1.847  0.4412 -0.5525  0.7072
 
              Baa    -0.0148    -1.989    -0.710    -0.663  0.6756  0.2091  0.7070
     2 C(13)  Bbb    -0.0000    -0.000    -0.000    -0.000 -0.2957  0.9553 -0.0000
              Bcc     0.0148     1.989     0.710     0.664 -0.6754 -0.2090  0.7072
 
              Baa    -0.5303   -71.168   -25.394   -23.739  0.6418  0.4555 -0.6169
     3 C(13)  Bbb    -0.4796   -64.354   -22.963   -21.466  0.7482 -0.5482  0.3737
              Bcc     1.0099   135.521    48.357    45.205  0.1680  0.7014  0.6927
 
              Baa    -0.3322   -44.580   -15.907   -14.870  0.0067  0.5331  0.8460
     4 C(13)  Bbb     0.1541    20.673     7.377     6.896  0.2947  0.8074 -0.5111
              Bcc     0.1782    23.907     8.531     7.974  0.9556 -0.2528  0.1517
 
              Baa    -0.0912   -12.239    -4.367    -4.082 -0.0465  0.7056  0.7071
     5 C(13)  Bbb     0.0000     0.001     0.000     0.000  0.9978  0.0658  0.0000
              Bcc     0.0912    12.238     4.367     4.082  0.0465 -0.7056  0.7071
 
              Baa    -0.1782   -23.907    -8.531    -7.975  0.9555 -0.2529 -0.1517
     6 C(13)  Bbb    -0.1541   -20.674    -7.377    -6.896  0.2948  0.8074  0.5110
              Bcc     0.3322    44.581    15.908    14.871 -0.0067 -0.5330  0.8461
 
              Baa    -1.0099  -135.525   -48.359   -45.206  0.1680  0.7015 -0.6926
     7 C(13)  Bbb     0.4796    64.355    22.964    21.467  0.7483 -0.5481 -0.3736
              Bcc     0.5304    71.170    25.395    23.740  0.6417  0.4555  0.6170
 
              Baa    -0.0202   -10.782    -3.847    -3.597  0.6916  0.1470  0.7071
     8 H(1)   Bbb    -0.0000    -0.000    -0.000    -0.000 -0.2079  0.9782 -0.0000
              Bcc     0.0202    10.783     3.848     3.597 -0.6917 -0.1470  0.7071
 
              Baa    -0.0135    -7.179    -2.562    -2.395  0.0159  0.9247  0.3803
     9 H(1)   Bbb     0.0052     2.754     0.983     0.919  0.8280 -0.2254  0.5134
              Bcc     0.0083     4.425     1.579     1.476 -0.5605 -0.3067  0.7693
 
              Baa    -0.0034    -1.820    -0.650    -0.607 -0.1859  0.6823  0.7070
    10 H(1)   Bbb    -0.0000    -0.000    -0.000    -0.000  0.9649  0.2626  0.0003
              Bcc     0.0034     1.820     0.650     0.607  0.1855 -0.6823  0.7072
 
              Baa    -0.0083    -4.425    -1.579    -1.476  0.5604  0.3068  0.7693
    11 H(1)   Bbb    -0.0052    -2.754    -0.983    -0.919  0.8281 -0.2255 -0.5133
              Bcc     0.0135     7.180     2.562     2.395  0.0160  0.9247 -0.3804
 
              Baa    -0.0202   -10.758    -3.839    -3.589  0.6942 -0.5859 -0.4182
    12 H(1)   Bbb     0.0040     2.112     0.754     0.704  0.3494  0.7822 -0.5159
              Bcc     0.0162     8.646     3.085     2.884  0.6293  0.2120  0.7477
 
              Baa    -0.0554   -29.576   -10.553    -9.865 -0.3028  0.8505  0.4301
    13 H(1)   Bbb    -0.0064    -3.399    -1.213    -1.134 -0.2596 -0.5078  0.8214
              Bcc     0.0618    32.975    11.766    10.999  0.9170  0.1370  0.3746
 
              Baa    -0.0162    -8.646    -3.085    -2.884 -0.6294 -0.2119  0.7477
    14 H(1)   Bbb    -0.0040    -2.111    -0.753    -0.704  0.3494  0.7822  0.5158
              Bcc     0.0202    10.758     3.839     3.588  0.6942 -0.5858  0.4183
 
              Baa    -0.0618   -32.973   -11.766   -10.999  0.9170  0.1370 -0.3746
    15 H(1)   Bbb     0.0064     3.396     1.212     1.133  0.2597  0.5077  0.8215
              Bcc     0.0554    29.577    10.554     9.866 -0.3027  0.8506 -0.4300
 

 ---------------------------------------------------------------------------------

   1 Symmetry operations used in ECPInt.
 ECPInt:  NShTT=    7875 NPrTT=   21088 LenC2=    7855 LenP2D=   18171.
 LDataN:  DoStor=T MaxTD1= 8 Len=  415
 Calling FoFJK, ICntrl=    100127 FMM=F ISym2X=0 I1Cent= 0 IOpClX= 1 NMat=1 NMatS=1 NMatT=0.
 -------------------------------------------------------------------
 Center     Atomic                   Forces (Hartrees/Bohr)
 Number     Number              X              Y              Z
 -------------------------------------------------------------------
      1        6           0.000002400    0.000000376   -0.000000086
      2        6           0.000001495    0.000000596    0.000001036
      3        6          -0.000000103   -0.000004053   -0.000008057
      4        6          -0.000002145   -0.000000059    0.000002779
      5        6          -0.000000302    0.000000433   -0.000000600
      6        6          -0.000000641    0.000002134   -0.000000471
      7        6          -0.000000680   -0.000000067    0.000002668
      8        1          -0.000000073   -0.000001773   -0.000000139
      9        1           0.000001665   -0.000000295   -0.000000140
     10        1           0.000000945    0.000001525   -0.000000095
     11        1           0.000001430   -0.000000758   -0.000000206
     12        1          -0.000001059    0.000001115   -0.000000209
     13        1          -0.000000814   -0.000001211   -0.000000506
     14        1          -0.000000987    0.000001980    0.000000494
     15        1          -0.000001131    0.000000056    0.000003532
 -------------------------------------------------------------------
 Cartesian Forces:  Max     0.000008057 RMS     0.000001840
 IRC-IRC-IRC-IRC-IRC-IRC-IRC-IRC-IRC-IRC-IRC-IRC-IRC-IRC-IRC-IRC-IRC-IRC
          ******** Start new reaction path calculation ********
 Supplied step size of   0.0500 bohr.
    Integration on MW PES will use step size of   0.1550 sqrt(amu)*bohr.
 Point Number:   0          Path Number:   1
 Calculating another point on the path.
 IRC-IRC-IRC-IRC-IRC-IRC-IRC-IRC-IRC-IRC-IRC-IRC-IRC-IRC-IRC-IRC-IRC-IRC
                          Input orientation:                          
 ---------------------------------------------------------------------
 Center     Atomic      Atomic             Coordinates (Angstroms)
 Number     Number       Type             X           Y           Z
 ---------------------------------------------------------------------
      1          6           0        0.515062    1.347599   -0.000033
      2          6           0        1.198965   -0.038122    0.000023
      3          6           0        0.480952   -0.691239    1.171774
      4          6           0       -0.888030   -0.400174    0.864751
      5          6           0       -0.913216    0.823463   -0.000040
      6          6           0       -0.887999   -0.400237   -0.864756
      7          6           0        0.480994   -0.691317   -1.171703
      8          1           0        2.284602   -0.053010    0.000045
      9          1           0        0.746410    1.927153   -0.895502
     10          1           0       -1.772092    1.481541   -0.000080
     11          1           0        0.746382    1.927214    0.895405
     12          1           0       -1.763471   -0.791643   -1.359487
     13          1           0        0.839906   -1.551994   -1.717546
     14          1           0       -1.763520   -0.791570    1.359459
     15          1           0        0.839812   -1.552007    1.717511
 ---------------------------------------------------------------------
                    Distance matrix (angstroms):
                    1          2          3          4          5
     1  C    0.000000
     2  C    1.545299   0.000000
     3  C    2.351840   1.521546   0.000000
     4  C    2.402338   2.287878   1.432862   0.000000
     5  C    1.521412   2.281148   2.368791   1.498594   0.000000
     6  C    2.402344   2.287879   2.471065   1.729507   1.498603
     7  C    2.351839   1.521541   2.343477   2.471060   2.368791
     8  H    2.256763   1.085739   2.243532   3.306635   3.315756
     9  H    1.091453   2.206599   3.346651   3.344598   2.185027
    10  H    2.291072   3.337148   3.342217   2.251744   1.082005
    11  H    1.091454   2.206601   2.646343   2.844113   2.185029
    12  H    3.408252   3.345459   3.384494   2.422164   2.275873
    13  H    3.385707   2.317493   3.036102   3.313715   3.415561
    14  H    3.408254   3.345456   2.254540   1.079078   2.275871
    15  H    3.385725   2.317456   1.080524   2.244851   3.415544
                    6          7          8          9         10
     6  C    0.000000
     7  C    1.432859   0.000000
     8  H    3.306636   2.243531   0.000000
     9  H    2.844114   2.646341   2.662534   0.000000
    10  H    2.251749   3.342216   4.337235   2.709834   0.000000
    11  H    3.344607   3.346651   2.662532   1.790907   2.709838
    12  H    1.079078   2.254540   4.333682   3.729160   2.648665
    13  H    2.244872   1.080521   2.698929   3.576166   4.355979
    14  H    2.422151   3.384476   4.333679   4.333135   2.648670
    15  H    3.313610   3.035967   2.698907   4.352139   4.355981
                   11         12         13         14         15
    11  H    0.000000
    12  H    4.333138   0.000000
    13  H    4.352143   2.735674   0.000000
    14  H    3.729175   2.718946   4.101711   0.000000
    15  H    3.576251   4.101604   3.435057   2.735655   0.000000
 Symmetry turned off by external request.
 Stoichiometry    C7H8
 Framework group  C1[X(C7H8)]
 Deg. of freedom    39
 Full point group                 C1      NOp   1
 Rotational constants (GHZ):           4.1003691           3.7931069           3.7614933
 Standard basis: def2TZVPP (5D, 7F)
   329 basis functions,   493 primitive gaussians,   372 cartesian basis functions
    25 alpha electrons       25 beta electrons
       nuclear repulsion energy       293.1635832537 Hartrees.
 NAtoms=   15 NActive=   15 NUniq=   15 SFac= 1.00D+00 NAtFMM=   60 NAOKFM=F Big=F
 Integral buffers will be    131072 words long.
 Raffenetti 2 integral format.
 Two-electron integral symmetry is turned off.
 Nuclear repulsion after empirical dispersion term =      293.1511872304 Hartrees.
 One-electron integrals computed using PRISM.
   1 Symmetry operations used in ECPInt.
 ECPInt:  NShTT=    7875 NPrTT=   21088 LenC2=    7857 LenP2D=   18169.
 LDataN:  DoStor=T MaxTD1= 6 Len=  172
 NBasis=   329 RedAO= T EigKep=  4.75D-05  NBF=   329
 NBsUse=   329 1.00D-06 EigRej= -1.00D+00 NBFU=   329
 ExpMin= 9.52D-02 ExpMax= 1.36D+04 ExpMxC= 4.63D+02 IAcc=3 IRadAn=         5 AccDes= 0.00D+00
 Harris functional with IExCor= 1009 and IRadAn=       5 diagonalized for initial guess.
 HarFok:  IExCor= 1009 AccDes= 0.00D+00 IRadAn=         5 IDoV= 1 UseB2=F ITyADJ=14
 ICtDFT=  3500011 ScaDFX=  1.000000  1.000000  1.000000  1.000000
 FoFCou: FMM=F IPFlag=           0 FMFlag=      100000 FMFlg1=           0
         NFxFlg=           0 DoJE=T BraDBF=F KetDBF=T FulRan=T
         wScrn=  0.000000 ICntrl=       500 IOpCl=  0 I1Cent=   200000004 NGrid=           0
         NMat0=    1 NMatS0=      1 NMatT0=    0 NMatD0=    1 NMtDS0=    0 NMtDT0=    0
 Symmetry not used in FoFCou.
 Mixing orbitals, IMix= 1 IMixAn=  0 NRI=1 NE=   25 Coef=  7.07106781D-01  7.07106781D-01
 Mixing orbitals, IMix= 1 IMixAn=  0 NRI=1 NE=   25 Coef= -7.07106781D-01  7.07106781D-01
 Initial guess <Sx>= 0.0000 <Sy>= 0.0000 <Sz>= 0.0000 <S**2>= 1.0000 S= 0.6180
 Requested convergence on RMS density matrix=1.00D-08 within  32 cycles.
 Requested convergence on MAX density matrix=1.00D-06.
 Requested convergence on             energy=1.00D-06.
 No special actions if energy rises.
 Integral accuracy reduced to 1.0D-05 until final iterations.
 Initial convergence to 1.0D-05 achieved.  Increase integral accuracy.
 SCF Done:  E(UPBE1PBE) =  -271.184867414     A.U. after   16 cycles
            NFock= 16  Conv=0.25D-08     -V/T= 2.0051
 <Sx>= 0.0000 <Sy>= 0.0000 <Sz>= 0.0000 <S**2>= 0.9903 S= 0.6137
 <L.S>=  0.00000000000    
 Annihilation of the first spin contaminant:
 S**2 before annihilation     0.9903,   after     0.2054
 QCSCF skips out because SCF is already converged.
 DoSCS=F DFT=T ScalE2(SS,OS)=  1.000000  1.000000
 Range of M.O.s used for correlation:     1   329
 NBasis=   329 NAE=    25 NBE=    25 NFC=     0 NFV=     0
 NROrb=    329 NOA=    25 NOB=    25 NVA=   304 NVB=   304

 **** Warning!!: The largest alpha MO coefficient is  0.32622627D+02


 **** Warning!!: The largest beta MO coefficient is  0.32614795D+02

   1 Symmetry operations used in ECPInt.
 ECPInt:  NShTT=    7875 NPrTT=   21088 LenC2=    7857 LenP2D=   18169.
 LDataN:  DoStor=T MaxTD1= 7 Len=  274
 Symmetrizing basis deriv contribution to polar:
 IMax=3 JMax=2 DiffMx= 0.00D+00
 G2DrvN: will do    16 centers at a time, making    1 passes.
 Calling FoFCou, ICntrl=  3107 FMM=F I1Cent=   0 AccDes= 0.00D+00.
 End of G2Drv F.D. properties file   721 does not exist.
 End of G2Drv F.D. properties file   722 does not exist.
 End of G2Drv F.D. properties file   788 does not exist.
          IDoAtm=111111111111111
          Differentiating once with respect to nuclear coordinates.
 Keep R1 and R2 ints in memory in canonical form, NReq=2983874486.
          There are    48 degrees of freedom in the 1st order CPHF.  IDoFFX=6 NUNeed=     0.
     42 vectors produced by pass  0 Test12= 3.17D-14 2.08D-09 XBig12= 2.60D-01 1.94D-01.
 AX will form    42 AO Fock derivatives at one time.
     42 vectors produced by pass  1 Test12= 3.17D-14 2.08D-09 XBig12= 2.27D-02 3.14D-02.
     42 vectors produced by pass  2 Test12= 3.17D-14 2.08D-09 XBig12= 9.18D-04 6.11D-03.
     42 vectors produced by pass  3 Test12= 3.17D-14 2.08D-09 XBig12= 1.10D-05 5.06D-04.
     42 vectors produced by pass  4 Test12= 3.17D-14 2.08D-09 XBig12= 1.53D-07 4.06D-05.
     42 vectors produced by pass  5 Test12= 3.17D-14 2.08D-09 XBig12= 1.54D-09 3.40D-06.
     42 vectors produced by pass  6 Test12= 3.17D-14 2.08D-09 XBig12= 1.05D-11 4.06D-07.
     18 vectors produced by pass  7 Test12= 3.17D-14 2.08D-09 XBig12= 5.47D-14 2.24D-08.
 InvSVY:  IOpt=1 It=  1 EMax= 2.00D-15
 Solved reduced A of dimension   312 with    42 vectors.
 End of Minotr F.D. properties file   721 does not exist.
 End of Minotr F.D. properties file   722 does not exist.
 End of Minotr F.D. properties file   788 does not exist.
   1 Symmetry operations used in ECPInt.
 ECPInt:  NShTT=    7875 NPrTT=   21088 LenC2=    7857 LenP2D=   18169.
 LDataN:  DoStor=T MaxTD1= 8 Len=  415
 Calling FoFJK, ICntrl=    100127 FMM=F ISym2X=0 I1Cent= 0 IOpClX= 1 NMat=1 NMatS=1 NMatT=0.
 -------------------------------------------------------------------
 Center     Atomic                   Forces (Hartrees/Bohr)
 Number     Number              X              Y              Z
 -------------------------------------------------------------------
      1        6          -0.000374855   -0.000484100   -0.000000091
      2        6          -0.000566796   -0.000398900    0.000001083
      3        6          -0.001297196    0.000071135    0.000794222
      4        6           0.001894030    0.001680498    0.006135303
      5        6          -0.000207149   -0.002254396   -0.000000464
      6        6           0.001895658    0.001682294   -0.006133065
      7        6          -0.001297842    0.000075001   -0.000799718
      8        1          -0.000042232   -0.000043573   -0.000000142
      9        1          -0.000078350   -0.000036200   -0.000008616
     10        1          -0.000045571   -0.000195860   -0.000000090
     11        1          -0.000078579   -0.000036663    0.000008264
     12        1           0.000102461   -0.000098809   -0.000130491
     13        1          -0.000002903    0.000068109   -0.000118300
     14        1           0.000102540   -0.000097977    0.000130708
     15        1          -0.000003217    0.000069439    0.000121397
 -------------------------------------------------------------------
 Cartesian Forces:  Max     0.006135303 RMS     0.001482430
 IRC-IRC-IRC-IRC-IRC-IRC-IRC-IRC-IRC-IRC-IRC-IRC-IRC-IRC-IRC-IRC-IRC-IRC
 Pt  1 Step number   1 out of a maximum of  20
 Modified Bulirsch-Stoer Extrapolation Cycles:
    EPS =    0.000010000000000
      PEZero:  N= 2 I= 1 D=  4.04D-04 Err=  7.38D-04
      PEZero:  N= 3 I= 2 D=  4.04D-04 Err=  4.92D-04
      PEZero:  N= 3 I= 1 D=  8.07D-04 Err=  3.38D-08
 Maximum DWI energy   std dev =  0.000002704 at pt    41
 Maximum DWI gradient std dev =  0.014593703 at pt    40
 CORRECTOR INTEGRATION CONVERGENCE:
   Recorrection delta-x convergence threshold:    0.010000
   Delta-x Convergence Met
 Point Number:   1          Path Number:   1
   CHANGE IN THE REACTION COORDINATE =    0.15493
   NET REACTION COORDINATE UP TO THIS POINT =    0.15493
  # OF POINTS ALONG THE PATH =   1
  # OF STEPS =   1

 Calculating another point on the path.
 IRC-IRC-IRC-IRC-IRC-IRC-IRC-IRC-IRC-IRC-IRC-IRC-IRC-IRC-IRC-IRC-IRC-IRC
                          Input orientation:                          
 ---------------------------------------------------------------------
 Center     Atomic      Atomic             Coordinates (Angstroms)
 Number     Number       Type             X           Y           Z
 ---------------------------------------------------------------------
      1          6           0        0.514199    1.346534   -0.000033
      2          6           0        1.197552   -0.039033    0.000024
      3          6           0        0.478028   -0.691182    1.173654
      4          6           0       -0.883610   -0.396067    0.879189
      5          6           0       -0.913663    0.818043   -0.000040
      6          6           0       -0.883577   -0.396127   -0.879192
      7          6           0        0.478071   -0.691252   -1.173592
      8          1           0        2.283296   -0.054273    0.000044
      9          1           0        0.744136    1.926228   -0.895748
     10          1           0       -1.773217    1.475772   -0.000080
     11          1           0        0.744105    1.926288    0.895652
     12          1           0       -1.761389   -0.794942   -1.363764
     13          1           0        0.839685   -1.549899   -1.720567
     14          1           0       -1.761439   -0.794859    1.363746
     15          1           0        0.839598   -1.549866    1.720604
 ---------------------------------------------------------------------
                    Distance matrix (angstroms):
                    1          2          3          4          5
     1  C    0.000000
     2  C    1.544917   0.000000
     3  C    2.351836   1.523293   0.000000
     4  C    2.400741   2.287278   1.424030   0.000000
     5  C    1.522528   2.278554   2.364767   1.499336   0.000000
     6  C    2.400743   2.287277   2.480969   1.758381   1.499341
     7  C    2.351833   1.523292   2.347246   2.480971   2.364766
     8  H    2.256538   1.085850   2.245441   3.304392   3.313831
     9  H    1.091432   2.206864   3.347249   3.345596   2.186016
    10  H    2.291064   3.334682   3.337880   2.251288   1.082331
    11  H    1.091432   2.206864   2.645606   2.836029   2.186016
    12  H    3.409396   3.344645   3.385889   2.441401   2.275984
    13  H    3.384597   2.317588   3.040511   3.325628   3.411977
    14  H    3.409397   3.344644   2.249911   1.079081   2.275981
    15  H    3.384613   2.317572   1.080382   2.238007   3.411969
                    6          7          8          9         10
     6  C    0.000000
     7  C    1.424028   0.000000
     8  H    3.304392   2.245440   0.000000
     9  H    2.836029   2.645599   2.663427   0.000000
    10  H    2.251290   3.337877   4.335474   2.709649   0.000000
    11  H    3.345599   3.347247   2.663427   1.791400   2.709651
    12  H    1.079081   2.249910   4.332209   3.728467   2.648758
    13  H    2.238020   1.080380   2.698409   3.573922   4.352243
    14  H    2.441393   3.385886   4.332209   4.334460   2.648760
    15  H    3.325565   3.040442   2.698404   4.351740   4.352245
                   11         12         13         14         15
    11  H    0.000000
    12  H    4.334461   0.000000
    13  H    4.351736   2.731822   0.000000
    14  H    3.728472   2.727511   4.104744   0.000000
    15  H    3.573976   4.104677   3.441170   2.731809   0.000000
 Symmetry turned off by external request.
 Stoichiometry    C7H8
 Framework group  C1[X(C7H8)]
 Deg. of freedom    39
 Full point group                 C1      NOp   1
 Rotational constants (GHZ):           4.0836589           3.8093743           3.7492558
 Standard basis: def2TZVPP (5D, 7F)
   329 basis functions,   493 primitive gaussians,   372 cartesian basis functions
    25 alpha electrons       25 beta electrons
       nuclear repulsion energy       293.0700499069 Hartrees.
 NAtoms=   15 NActive=   15 NUniq=   15 SFac= 1.00D+00 NAtFMM=   60 NAOKFM=F Big=F
 Integral buffers will be    131072 words long.
 Raffenetti 2 integral format.
 Two-electron integral symmetry is turned off.
 Nuclear repulsion after empirical dispersion term =      293.0576520990 Hartrees.
 One-electron integrals computed using PRISM.
   1 Symmetry operations used in ECPInt.
 ECPInt:  NShTT=    7875 NPrTT=   21088 LenC2=    7857 LenP2D=   18167.
 LDataN:  DoStor=T MaxTD1= 6 Len=  172
 NBasis=   329 RedAO= T EigKep=  4.58D-05  NBF=   329
 NBsUse=   329 1.00D-06 EigRej= -1.00D+00 NBFU=   329
 ExpMin= 9.52D-02 ExpMax= 1.36D+04 ExpMxC= 4.63D+02 IAcc=3 IRadAn=         5 AccDes= 0.00D+00
 Harris functional with IExCor= 1009 and IRadAn=       5 diagonalized for initial guess.
 HarFok:  IExCor= 1009 AccDes= 0.00D+00 IRadAn=         5 IDoV= 1 UseB2=F ITyADJ=14
 ICtDFT=  3500011 ScaDFX=  1.000000  1.000000  1.000000  1.000000
 FoFCou: FMM=F IPFlag=           0 FMFlag=      100000 FMFlg1=           0
         NFxFlg=           0 DoJE=T BraDBF=F KetDBF=T FulRan=T
         wScrn=  0.000000 ICntrl=       500 IOpCl=  0 I1Cent=   200000004 NGrid=           0
         NMat0=    1 NMatS0=      1 NMatT0=    0 NMatD0=    1 NMtDS0=    0 NMtDT0=    0
 Symmetry not used in FoFCou.
 Mixing orbitals, IMix= 1 IMixAn=  0 NRI=1 NE=   25 Coef=  7.07106781D-01  7.07106781D-01
 Mixing orbitals, IMix= 1 IMixAn=  0 NRI=1 NE=   25 Coef= -7.07106781D-01  7.07106781D-01
 Initial guess <Sx>= 0.0000 <Sy>= 0.0000 <Sz>= 0.0000 <S**2>= 1.0000 S= 0.6180
 Requested convergence on RMS density matrix=1.00D-08 within  32 cycles.
 Requested convergence on MAX density matrix=1.00D-06.
 Requested convergence on             energy=1.00D-06.
 No special actions if energy rises.
 Integral accuracy reduced to 1.0D-05 until final iterations.
 Initial convergence to 1.0D-05 achieved.  Increase integral accuracy.
 SCF Done:  E(UPBE1PBE) =  -271.185586181     A.U. after   16 cycles
            NFock= 16  Conv=0.27D-08     -V/T= 2.0051
 <Sx>= 0.0000 <Sy>= 0.0000 <Sz>= 0.0000 <S**2>= 0.9536 S= 0.5971
 <L.S>=  0.00000000000    
 Annihilation of the first spin contaminant:
 S**2 before annihilation     0.9536,   after     0.2119
 QCSCF skips out because SCF is already converged.
 DoSCS=F DFT=T ScalE2(SS,OS)=  1.000000  1.000000
 Range of M.O.s used for correlation:     1   329
 NBasis=   329 NAE=    25 NBE=    25 NFC=     0 NFV=     0
 NROrb=    329 NOA=    25 NOB=    25 NVA=   304 NVB=   304

 **** Warning!!: The largest alpha MO coefficient is  0.31437888D+02


 **** Warning!!: The largest beta MO coefficient is  0.31434993D+02

   1 Symmetry operations used in ECPInt.
 ECPInt:  NShTT=    7875 NPrTT=   21088 LenC2=    7857 LenP2D=   18167.
 LDataN:  DoStor=T MaxTD1= 7 Len=  274
 Symmetrizing basis deriv contribution to polar:
 IMax=3 JMax=2 DiffMx= 0.00D+00
 G2DrvN: will do    16 centers at a time, making    1 passes.
 Calling FoFCou, ICntrl=  3107 FMM=F I1Cent=   0 AccDes= 0.00D+00.
 End of G2Drv F.D. properties file   721 does not exist.
 End of G2Drv F.D. properties file   722 does not exist.
 End of G2Drv F.D. properties file   788 does not exist.
          IDoAtm=111111111111111
          Differentiating once with respect to nuclear coordinates.
 Keep R1 and R2 ints in memory in canonical form, NReq=2983874486.
          There are    48 degrees of freedom in the 1st order CPHF.  IDoFFX=6 NUNeed=     0.
     42 vectors produced by pass  0 Test12= 3.17D-14 2.08D-09 XBig12= 2.60D-01 2.16D-01.
 AX will form    42 AO Fock derivatives at one time.
     42 vectors produced by pass  1 Test12= 3.17D-14 2.08D-09 XBig12= 2.49D-02 3.37D-02.
     42 vectors produced by pass  2 Test12= 3.17D-14 2.08D-09 XBig12= 9.92D-04 6.19D-03.
     42 vectors produced by pass  3 Test12= 3.17D-14 2.08D-09 XBig12= 1.20D-05 5.43D-04.
     42 vectors produced by pass  4 Test12= 3.17D-14 2.08D-09 XBig12= 1.56D-07 4.31D-05.
     42 vectors produced by pass  5 Test12= 3.17D-14 2.08D-09 XBig12= 1.45D-09 3.93D-06.
     42 vectors produced by pass  6 Test12= 3.17D-14 2.08D-09 XBig12= 1.04D-11 4.22D-07.
     17 vectors produced by pass  7 Test12= 3.17D-14 2.08D-09 XBig12= 5.80D-14 2.27D-08.
 InvSVY:  IOpt=1 It=  1 EMax= 1.33D-15
 Solved reduced A of dimension   311 with    42 vectors.
 End of Minotr F.D. properties file   721 does not exist.
 End of Minotr F.D. properties file   722 does not exist.
 End of Minotr F.D. properties file   788 does not exist.
   1 Symmetry operations used in ECPInt.
 ECPInt:  NShTT=    7875 NPrTT=   21088 LenC2=    7857 LenP2D=   18167.
 LDataN:  DoStor=T MaxTD1= 8 Len=  415
 Calling FoFJK, ICntrl=    100127 FMM=F ISym2X=0 I1Cent= 0 IOpClX= 1 NMat=1 NMatS=1 NMatT=0.
 -------------------------------------------------------------------
 Center     Atomic                   Forces (Hartrees/Bohr)
 Number     Number              X              Y              Z
 -------------------------------------------------------------------
      1        6          -0.000803167   -0.000993560    0.000000193
      2        6          -0.001294412   -0.000780639   -0.000000036
      3        6          -0.002912382    0.000061558    0.001684280
      4        6           0.004254661    0.003818351    0.013690629
      5        6          -0.000411728   -0.005138367    0.000000134
      6        6           0.004254999    0.003818337   -0.013690855
      7        6          -0.002912150    0.000062976   -0.001685919
      8        1          -0.000098904   -0.000094860   -0.000000003
      9        1          -0.000178800   -0.000072095   -0.000018318
     10        1          -0.000094638   -0.000454645    0.000000046
     11        1          -0.000178828   -0.000072106    0.000018361
     12        1           0.000199152   -0.000238860   -0.000341144
     13        1          -0.000011578    0.000160817   -0.000242383
     14        1           0.000199089   -0.000238812    0.000341305
     15        1          -0.000011313    0.000161905    0.000243710
 -------------------------------------------------------------------
 Cartesian Forces:  Max     0.013690855 RMS     0.003314227
 IRC-IRC-IRC-IRC-IRC-IRC-IRC-IRC-IRC-IRC-IRC-IRC-IRC-IRC-IRC-IRC-IRC-IRC
 Pt  2 Step number   1 out of a maximum of  20
 Modified Bulirsch-Stoer Extrapolation Cycles:
    EPS =    0.000010000000000
      PEZero:  N= 2 I= 1 D=  8.07D-04 Err=  1.09D-05
      PEZero:  N= 3 I= 2 D=  8.07D-04 Err=  7.24D-06
      PEZero:  N= 3 I= 1 D=  1.61D-03 Err=  2.78D-08
 Maximum DWI energy   std dev =  0.000002315 at pt    68
 Maximum DWI gradient std dev =  0.006636913 at pt    14
 CORRECTOR INTEGRATION CONVERGENCE:
   Recorrection delta-x convergence threshold:    0.010000
   Delta-x Convergence Met
 Point Number:   2          Path Number:   1
   CHANGE IN THE REACTION COORDINATE =    0.15489
   NET REACTION COORDINATE UP TO THIS POINT =    0.30982
  # OF POINTS ALONG THE PATH =   2
  # OF STEPS =   1

 Calculating another point on the path.
 IRC-IRC-IRC-IRC-IRC-IRC-IRC-IRC-IRC-IRC-IRC-IRC-IRC-IRC-IRC-IRC-IRC-IRC
                          Input orientation:                          
 ---------------------------------------------------------------------
 Center     Atomic      Atomic             Coordinates (Angstroms)
 Number     Number       Type             X           Y           Z
 ---------------------------------------------------------------------
      1          6           0        0.513381    1.345531   -0.000033
      2          6           0        1.196196   -0.039779    0.000024
      3          6           0        0.474927   -0.691166    1.175347
      4          6           0       -0.879108   -0.392049    0.893615
      5          6           0       -0.914067    0.812610   -0.000040
      6          6           0       -0.879075   -0.392110   -0.893619
      7          6           0        0.474970   -0.691235   -1.175286
      8          1           0        2.282047   -0.055451    0.000044
      9          1           0        0.741914    1.925378   -0.895982
     10          1           0       -1.774340    1.469972   -0.000080
     11          1           0        0.741883    1.925437    0.895886
     12          1           0       -1.759097   -0.798025   -1.368325
     13          1           0        0.839468   -1.547763   -1.723465
     14          1           0       -1.759148   -0.797941    1.368308
     15          1           0        0.839384   -1.547720    1.723515
 ---------------------------------------------------------------------
                    Distance matrix (angstroms):
                    1          2          3          4          5
     1  C    0.000000
     2  C    1.544448   0.000000
     3  C    2.351836   1.525096   0.000000
     4  C    2.399337   2.286806   1.415010   0.000000
     5  C    1.523685   2.275912   2.360547   1.500348   0.000000
     6  C    2.399339   2.286806   2.490658   1.787234   1.500352
     7  C    2.351832   1.525095   2.350633   2.490661   2.360547
     8  H    2.256309   1.085965   2.247478   3.302222   3.311900
     9  H    1.091409   2.207043   3.347833   3.346765   2.187062
    10  H    2.291104   3.332182   3.333370   2.251056   1.082680
    11  H    1.091409   2.207044   2.644991   2.828137   2.187062
    12  H    3.410457   3.343811   3.387116   2.460807   2.276054
    13  H    3.383445   2.317690   3.044628   3.337407   3.408290
    14  H    3.410457   3.343810   2.244933   1.079144   2.276052
    15  H    3.383459   2.317676   1.080278   2.231037   3.408283
                    6          7          8          9         10
     6  C    0.000000
     7  C    1.415009   0.000000
     8  H    3.302221   2.247477   0.000000
     9  H    2.828137   2.644983   2.664311   0.000000
    10  H    2.251058   3.333366   4.333728   2.709534   0.000000
    11  H    3.346768   3.347831   2.664312   1.791868   2.709536
    12  H    1.079144   2.244933   4.330670   3.727611   2.648800
    13  H    2.231047   1.080277   2.697872   3.571688   4.348423
    14  H    2.460801   3.387114   4.330669   4.335757   2.648801
    15  H    3.337353   3.044571   2.697869   4.351284   4.348425
                   11         12         13         14         15
    11  H    0.000000
    12  H    4.335758   0.000000
    13  H    4.351281   2.727778   0.000000
    14  H    3.727616   2.736633   4.107810   0.000000
    15  H    3.571735   4.107752   3.446980   2.727766   0.000000
 Symmetry turned off by external request.
 Stoichiometry    C7H8
 Framework group  C1[X(C7H8)]
 Deg. of freedom    39
 Full point group                 C1      NOp   1
 Rotational constants (GHZ):           4.0668943           3.8257721           3.7372778
 Standard basis: def2TZVPP (5D, 7F)
   329 basis functions,   493 primitive gaussians,   372 cartesian basis functions
    25 alpha electrons       25 beta electrons
       nuclear repulsion energy       292.9858465960 Hartrees.
 NAtoms=   15 NActive=   15 NUniq=   15 SFac= 1.00D+00 NAtFMM=   60 NAOKFM=F Big=F
 Integral buffers will be    131072 words long.
 Raffenetti 2 integral format.
 Two-electron integral symmetry is turned off.
 Nuclear repulsion after empirical dispersion term =      292.9734468311 Hartrees.
 One-electron integrals computed using PRISM.
   1 Symmetry operations used in ECPInt.
 ECPInt:  NShTT=    7875 NPrTT=   21088 LenC2=    7857 LenP2D=   18165.
 LDataN:  DoStor=T MaxTD1= 6 Len=  172
 NBasis=   329 RedAO= T EigKep=  4.42D-05  NBF=   329
 NBsUse=   329 1.00D-06 EigRej= -1.00D+00 NBFU=   329
 ExpMin= 9.52D-02 ExpMax= 1.36D+04 ExpMxC= 4.63D+02 IAcc=3 IRadAn=         5 AccDes= 0.00D+00
 Harris functional with IExCor= 1009 and IRadAn=       5 diagonalized for initial guess.
 HarFok:  IExCor= 1009 AccDes= 0.00D+00 IRadAn=         5 IDoV= 1 UseB2=F ITyADJ=14
 ICtDFT=  3500011 ScaDFX=  1.000000  1.000000  1.000000  1.000000
 FoFCou: FMM=F IPFlag=           0 FMFlag=      100000 FMFlg1=           0
         NFxFlg=           0 DoJE=T BraDBF=F KetDBF=T FulRan=T
         wScrn=  0.000000 ICntrl=       500 IOpCl=  0 I1Cent=   200000004 NGrid=           0
         NMat0=    1 NMatS0=      1 NMatT0=    0 NMatD0=    1 NMtDS0=    0 NMtDT0=    0
 Symmetry not used in FoFCou.
 Mixing orbitals, IMix= 1 IMixAn=  0 NRI=1 NE=   25 Coef=  7.07106781D-01  7.07106781D-01
 Mixing orbitals, IMix= 1 IMixAn=  0 NRI=1 NE=   25 Coef= -7.07106781D-01  7.07106781D-01
 Initial guess <Sx>= 0.0000 <Sy>= 0.0000 <Sz>= 0.0000 <S**2>= 1.0000 S= 0.6180
 Requested convergence on RMS density matrix=1.00D-08 within  32 cycles.
 Requested convergence on MAX density matrix=1.00D-06.
 Requested convergence on             energy=1.00D-06.
 No special actions if energy rises.
 Integral accuracy reduced to 1.0D-05 until final iterations.
 Initial convergence to 1.0D-05 achieved.  Increase integral accuracy.
 SCF Done:  E(UPBE1PBE) =  -271.186902034     A.U. after   16 cycles
            NFock= 16  Conv=0.77D-08     -V/T= 2.0050
 <Sx>= 0.0000 <Sy>= 0.0000 <Sz>= 0.0000 <S**2>= 0.8973 S= 0.5711
 <L.S>=  0.00000000000    
 Annihilation of the first spin contaminant:
 S**2 before annihilation     0.8973,   after     0.2035
 QCSCF skips out because SCF is already converged.
 DoSCS=F DFT=T ScalE2(SS,OS)=  1.000000  1.000000
 Range of M.O.s used for correlation:     1   329
 NBasis=   329 NAE=    25 NBE=    25 NFC=     0 NFV=     0
 NROrb=    329 NOA=    25 NOB=    25 NVA=   304 NVB=   304

 **** Warning!!: The largest alpha MO coefficient is  0.30039358D+02


 **** Warning!!: The largest beta MO coefficient is  0.30041440D+02

   1 Symmetry operations used in ECPInt.
 ECPInt:  NShTT=    7875 NPrTT=   21088 LenC2=    7857 LenP2D=   18165.
 LDataN:  DoStor=T MaxTD1= 7 Len=  274
 Symmetrizing basis deriv contribution to polar:
 IMax=3 JMax=2 DiffMx= 0.00D+00
 G2DrvN: will do    16 centers at a time, making    1 passes.
 Calling FoFCou, ICntrl=  3107 FMM=F I1Cent=   0 AccDes= 0.00D+00.
 End of G2Drv F.D. properties file   721 does not exist.
 End of G2Drv F.D. properties file   722 does not exist.
 End of G2Drv F.D. properties file   788 does not exist.
          IDoAtm=111111111111111
          Differentiating once with respect to nuclear coordinates.
 Keep R1 and R2 ints in memory in canonical form, NReq=2983874486.
          There are    48 degrees of freedom in the 1st order CPHF.  IDoFFX=6 NUNeed=     0.
     42 vectors produced by pass  0 Test12= 3.17D-14 2.08D-09 XBig12= 2.57D-01 2.37D-01.
 AX will form    42 AO Fock derivatives at one time.
     42 vectors produced by pass  1 Test12= 3.17D-14 2.08D-09 XBig12= 2.78D-02 3.51D-02.
     42 vectors produced by pass  2 Test12= 3.17D-14 2.08D-09 XBig12= 1.13D-03 6.34D-03.
     42 vectors produced by pass  3 Test12= 3.17D-14 2.08D-09 XBig12= 1.35D-05 5.91D-04.
     42 vectors produced by pass  4 Test12= 3.17D-14 2.08D-09 XBig12= 1.80D-07 4.39D-05.
     42 vectors produced by pass  5 Test12= 3.17D-14 2.08D-09 XBig12= 1.61D-09 4.42D-06.
     42 vectors produced by pass  6 Test12= 3.17D-14 2.08D-09 XBig12= 1.07D-11 4.19D-07.
     19 vectors produced by pass  7 Test12= 3.17D-14 2.08D-09 XBig12= 6.24D-14 2.56D-08.
 InvSVY:  IOpt=1 It=  1 EMax= 1.78D-15
 Solved reduced A of dimension   313 with    42 vectors.
 End of Minotr F.D. properties file   721 does not exist.
 End of Minotr F.D. properties file   722 does not exist.
 End of Minotr F.D. properties file   788 does not exist.
   1 Symmetry operations used in ECPInt.
 ECPInt:  NShTT=    7875 NPrTT=   21088 LenC2=    7857 LenP2D=   18165.
 LDataN:  DoStor=T MaxTD1= 8 Len=  415
 Calling FoFJK, ICntrl=    100127 FMM=F ISym2X=0 I1Cent= 0 IOpClX= 1 NMat=1 NMatS=1 NMatT=0.
 -------------------------------------------------------------------
 Center     Atomic                   Forces (Hartrees/Bohr)
 Number     Number              X              Y              Z
 -------------------------------------------------------------------
      1        6          -0.001231989   -0.001510597    0.000000220
      2        6          -0.002052987   -0.001027042   -0.000000028
      3        6          -0.004976082    0.000002431    0.002465528
      4        6           0.007043605    0.006140164    0.022296751
      5        6          -0.000590913   -0.008442048    0.000000345
      6        6           0.007044192    0.006139590   -0.022297180
      7        6          -0.004975920    0.000003230   -0.002466957
      8        1          -0.000157748   -0.000149328   -0.000000005
      9        1          -0.000284500   -0.000107385   -0.000028220
     10        1          -0.000148392   -0.000751293    0.000000060
     11        1          -0.000284509   -0.000107401    0.000028262
     12        1           0.000331839   -0.000370175   -0.000614866
     13        1          -0.000024349    0.000274538   -0.000376819
     14        1           0.000331828   -0.000370155    0.000614901
     15        1          -0.000024075    0.000275471    0.000378009
 -------------------------------------------------------------------
 Cartesian Forces:  Max     0.022297180 RMS     0.005403330
 IRC-IRC-IRC-IRC-IRC-IRC-IRC-IRC-IRC-IRC-IRC-IRC-IRC-IRC-IRC-IRC-IRC-IRC
 Pt  3 Step number   1 out of a maximum of  20
 Modified Bulirsch-Stoer Extrapolation Cycles:
    EPS =    0.000010000000000
      PEZero:  N= 2 I= 1 D=  8.07D-04 Err=  9.10D-06
 Maximum DWI energy   std dev =  0.000001591 at pt    34
 Maximum DWI gradient std dev =  0.003043412 at pt    15
 CORRECTOR INTEGRATION CONVERGENCE:
   Recorrection delta-x convergence threshold:    0.010000
   Delta-x Convergence Met
 Point Number:   3          Path Number:   1
   CHANGE IN THE REACTION COORDINATE =    0.15490
   NET REACTION COORDINATE UP TO THIS POINT =    0.46473
  # OF POINTS ALONG THE PATH =   3
  # OF STEPS =   1

 Calculating another point on the path.
 IRC-IRC-IRC-IRC-IRC-IRC-IRC-IRC-IRC-IRC-IRC-IRC-IRC-IRC-IRC-IRC-IRC-IRC
                          Input orientation:                          
 ---------------------------------------------------------------------
 Center     Atomic      Atomic             Coordinates (Angstroms)
 Number     Number       Type             X           Y           Z
 ---------------------------------------------------------------------
      1          6           0        0.512607    1.344584   -0.000033
      2          6           0        1.194885   -0.040376    0.000024
      3          6           0        0.471652   -0.691194    1.176864
      4          6           0       -0.874525   -0.388107    0.908011
      5          6           0       -0.914426    0.807142   -0.000040
      6          6           0       -0.874492   -0.388168   -0.908015
      7          6           0        0.471695   -0.691263   -1.176804
      8          1           0        2.280844   -0.056585    0.000044
      9          1           0        0.739749    1.924590   -0.896202
     10          1           0       -1.775446    1.464133   -0.000079
     11          1           0        0.739718    1.924649    0.896107
     12          1           0       -1.756572   -0.800815   -1.373292
     13          1           0        0.839239   -1.545561   -1.726296
     14          1           0       -1.756623   -0.800731    1.373275
     15          1           0        0.839157   -1.545512    1.726353
 ---------------------------------------------------------------------
                    Distance matrix (angstroms):
                    1          2          3          4          5
     1  C    0.000000
     2  C    1.543897   0.000000
     3  C    2.351841   1.526953   0.000000
     4  C    2.398103   2.286442   1.405822   0.000000
     5  C    1.524883   2.273209   2.356125   1.501588   0.000000
     6  C    2.398105   2.286442   2.500130   1.816026   1.501592
     7  C    2.351837   1.526952   2.353668   2.500133   2.356124
     8  H    2.256089   1.086080   2.249625   3.300101   3.309951
     9  H    1.091384   2.207138   3.348403   3.348079   2.188171
    10  H    2.291174   3.329627   3.328675   2.251018   1.083048
    11  H    1.091384   2.207139   2.644488   2.820419   2.188171
    12  H    3.411415   3.342958   3.388259   2.480459   2.276083
[...]
  Beta virt. eigenvalues --    3.18991   3.19787   3.20025   3.23175   3.23922
  Beta virt. eigenvalues --    3.24542   3.26869   3.27988   3.29590   3.31019
  Beta virt. eigenvalues --    3.31508   3.33653   3.33712   3.34743   3.40611
  Beta virt. eigenvalues --    3.41686   3.47556   3.47776   3.48869   3.50208
  Beta virt. eigenvalues --    3.50280   3.51795   3.55363   3.55418   3.56735
  Beta virt. eigenvalues --    3.58651   3.60258   3.61615   3.63351   3.64707
  Beta virt. eigenvalues --    3.68681   3.71261   3.72025   3.73647   3.74949
  Beta virt. eigenvalues --    3.76463   3.77370   3.77621   3.77945   3.82708
  Beta virt. eigenvalues --    3.82865   3.82937   3.87184   3.88293   3.91183
  Beta virt. eigenvalues --    3.92657   3.93636   3.94543   3.95355   3.99137
  Beta virt. eigenvalues --    4.00316   4.05101   4.05302   4.06468   4.07261
  Beta virt. eigenvalues --    4.08051   4.08456   4.10799   4.11405   4.12194
  Beta virt. eigenvalues --    4.13855   4.20930   4.22224   4.22485   4.22556
  Beta virt. eigenvalues --    4.25676   4.26667   4.32820   4.32920   4.33093
  Beta virt. eigenvalues --    4.36264   4.38260   4.38653   4.41626   4.43828
  Beta virt. eigenvalues --    4.44747   4.46281   4.49093   4.52863   4.53614
  Beta virt. eigenvalues --    4.54439   4.61010   4.63651   4.71671   4.76904
  Beta virt. eigenvalues --    4.79161   4.79234   4.83716   4.87333   4.88098
  Beta virt. eigenvalues --    4.90808   4.92843   4.93275   4.96352   4.97823
  Beta virt. eigenvalues --    4.98028   4.98093   4.99933   5.00529   5.02741
  Beta virt. eigenvalues --    5.11022   5.11680   5.13474   5.13550   5.13870
  Beta virt. eigenvalues --    5.14278   5.19335   5.20334   5.23015   5.24146
  Beta virt. eigenvalues --    5.43192   5.45025   5.52474   5.53605   5.53761
  Beta virt. eigenvalues --    5.58610   5.59263   5.66490   5.70099   5.74442
  Beta virt. eigenvalues --    5.76106   5.80504   5.83245   5.86811   5.97569
  Beta virt. eigenvalues --    5.97728   6.07308  23.05639  23.10294  23.20722
  Beta virt. eigenvalues --   23.36938  23.58051  23.66339  23.78788
          Condensed to atoms (all electrons):
               1          2          3          4          5          6
     1  C    4.679202   0.394470  -0.056270  -0.056107   0.394907  -0.056107
     2  C    0.394470   4.922868   0.294506  -0.036447  -0.046067  -0.036447
     3  C   -0.056270   0.294506   5.032551   0.348167  -0.037004  -0.088191
     4  C   -0.056107  -0.036447   0.348167   5.031947   0.293842   0.256565
     5  C    0.394907  -0.046067  -0.037004   0.293842   4.924899   0.293842
     6  C   -0.056107  -0.036447  -0.088191   0.256565   0.293842   5.031947
     7  C   -0.056270   0.294506   0.256030  -0.088191  -0.037004   0.348167
     8  H   -0.022706   0.412207  -0.027406   0.006553   0.006968   0.006553
     9  H    0.404475  -0.026701   0.010491   0.010438  -0.026665  -0.004700
    10  H   -0.022933   0.006900   0.006605  -0.027437   0.412337  -0.027437
    11  H    0.404475  -0.026701  -0.004727  -0.004700  -0.026665   0.010438
    12  H    0.001453   0.002177   0.022213  -0.046558  -0.016379   0.434478
    13  H    0.001474  -0.016575  -0.046269   0.022275   0.002239  -0.043120
    14  H    0.001453   0.002177  -0.042949   0.434478  -0.016379  -0.046558
    15  H    0.001474  -0.016575   0.434618  -0.043120   0.002239   0.022275
               7          8          9         10         11         12
     1  C   -0.056270  -0.022706   0.404475  -0.022933   0.404475   0.001453
     2  C    0.294506   0.412207  -0.026701   0.006900  -0.026701   0.002177
     3  C    0.256030  -0.027406   0.010491   0.006605  -0.004727   0.022213
     4  C   -0.088191   0.006553   0.010438  -0.027437  -0.004700  -0.046558
     5  C   -0.037004   0.006968  -0.026665   0.412337  -0.026665  -0.016379
     6  C    0.348167   0.006553  -0.004700  -0.027437   0.010438   0.434478
     7  C    5.032551  -0.027406  -0.004727   0.006605   0.010491  -0.042949
     8  H   -0.027406   0.593047  -0.001562  -0.000454  -0.001562   0.000085
     9  H   -0.004727  -0.001562   0.619928  -0.001526  -0.032166   0.000537
    10  H    0.006605  -0.000454  -0.001526   0.593318  -0.001526  -0.006230
    11  H    0.010491  -0.001562  -0.032166  -0.001526   0.619928  -0.000238
    12  H   -0.042949   0.000085   0.000537  -0.006230  -0.000238   0.553384
    13  H    0.434618  -0.006211   0.000546   0.000083  -0.000241  -0.002394
    14  H    0.022213   0.000085  -0.000238  -0.006230   0.000537  -0.007356
    15  H   -0.046269  -0.006211  -0.000241   0.000083   0.000546  -0.000004
              13         14         15
     1  C    0.001474   0.001453   0.001474
     2  C   -0.016575   0.002177  -0.016575
     3  C   -0.046269  -0.042949   0.434618
     4  C    0.022275   0.434478  -0.043120
     5  C    0.002239  -0.016379   0.002239
     6  C   -0.043120  -0.046558   0.022275
     7  C    0.434618   0.022213  -0.046269
     8  H   -0.006211   0.000085  -0.006211
     9  H    0.000546  -0.000238  -0.000241
    10  H    0.000083  -0.006230   0.000083
    11  H   -0.000241   0.000537   0.000546
    12  H   -0.002394  -0.007356  -0.000004
    13  H    0.553532  -0.000004  -0.007404
    14  H   -0.000004   0.553384  -0.002394
    15  H   -0.007404  -0.002394   0.553532
          Atomic-Atomic Spin Densities.
               1          2          3          4          5          6
     1  C    0.000000  -0.000000  -0.000000   0.000000   0.000000  -0.000000
     2  C   -0.000000   0.000000  -0.000000  -0.000000  -0.000000   0.000000
     3  C   -0.000000  -0.000000   0.000000  -0.000000   0.000000  -0.000000
     4  C    0.000000  -0.000000  -0.000000  -0.000000   0.000000   0.000000
     5  C    0.000000  -0.000000   0.000000   0.000000   0.000000  -0.000000
     6  C   -0.000000   0.000000  -0.000000   0.000000  -0.000000   0.000000
     7  C    0.000000   0.000000  -0.000000   0.000000  -0.000000   0.000000
     8  H   -0.000000  -0.000000   0.000000   0.000000   0.000000  -0.000000
     9  H   -0.000000  -0.000000   0.000000  -0.000000   0.000000   0.000000
    10  H    0.000000  -0.000000  -0.000000  -0.000000  -0.000000   0.000000
    11  H    0.000000   0.000000   0.000000  -0.000000  -0.000000   0.000000
    12  H   -0.000000   0.000000   0.000000   0.000000   0.000000  -0.000000
    13  H    0.000000  -0.000000  -0.000000  -0.000000  -0.000000   0.000000
    14  H    0.000000  -0.000000   0.000000   0.000000  -0.000000  -0.000000
    15  H   -0.000000   0.000000  -0.000000  -0.000000   0.000000   0.000000
               7          8          9         10         11         12
     1  C    0.000000  -0.000000  -0.000000   0.000000   0.000000  -0.000000
     2  C    0.000000  -0.000000  -0.000000  -0.000000   0.000000   0.000000
     3  C   -0.000000   0.000000   0.000000  -0.000000   0.000000   0.000000
     4  C    0.000000   0.000000  -0.000000  -0.000000  -0.000000   0.000000
     5  C   -0.000000   0.000000   0.000000  -0.000000  -0.000000   0.000000
     6  C    0.000000  -0.000000   0.000000   0.000000   0.000000  -0.000000
     7  C   -0.000000  -0.000000  -0.000000   0.000000  -0.000000  -0.000000
     8  H   -0.000000  -0.000000   0.000000   0.000000  -0.000000   0.000000
     9  H   -0.000000   0.000000  -0.000000  -0.000000  -0.000000   0.000000
    10  H    0.000000   0.000000  -0.000000   0.000000   0.000000  -0.000000
    11  H   -0.000000  -0.000000  -0.000000   0.000000   0.000000  -0.000000
    12  H   -0.000000   0.000000   0.000000  -0.000000  -0.000000   0.000000
    13  H    0.000000   0.000000  -0.000000  -0.000000   0.000000   0.000000
    14  H   -0.000000  -0.000000   0.000000   0.000000  -0.000000   0.000000
    15  H    0.000000  -0.000000  -0.000000   0.000000   0.000000  -0.000000
              13         14         15
     1  C    0.000000   0.000000  -0.000000
     2  C   -0.000000  -0.000000   0.000000
     3  C   -0.000000   0.000000  -0.000000
     4  C   -0.000000   0.000000  -0.000000
     5  C   -0.000000  -0.000000   0.000000
     6  C    0.000000  -0.000000   0.000000
     7  C    0.000000  -0.000000   0.000000
     8  H    0.000000  -0.000000  -0.000000
     9  H   -0.000000   0.000000  -0.000000
    10  H   -0.000000   0.000000   0.000000
    11  H    0.000000  -0.000000   0.000000
    12  H    0.000000   0.000000  -0.000000
    13  H   -0.000000   0.000000  -0.000000
    14  H    0.000000  -0.000000  -0.000000
    15  H   -0.000000  -0.000000   0.000000
 Mulliken charges and spin densities:
               1          2
     1  C   -0.012992  -0.000000
     2  C   -0.124299   0.000000
     3  C   -0.102366   0.000000
     4  C   -0.101706  -0.000000
     5  C   -0.125109   0.000000
     6  C   -0.101706   0.000000
     7  C   -0.102366  -0.000000
     8  H    0.068021  -0.000000
     9  H    0.052110  -0.000000
    10  H    0.067842   0.000000
    11  H    0.052110   0.000000
    12  H    0.107779   0.000000
    13  H    0.107453  -0.000000
    14  H    0.107779  -0.000000
    15  H    0.107453   0.000000
 Sum of Mulliken charges =  -0.00000   0.00000
 Mulliken charges and spin densities with hydrogens summed into heavy atoms:
               1          2
     1  C    0.091227  -0.000000
     2  C   -0.056278   0.000000
     3  C    0.005086   0.000000
     4  C    0.006073  -0.000000
     5  C   -0.057267   0.000000
     6  C    0.006073   0.000000
     7  C    0.005086  -0.000000
 APT charges:
               1
     1  C   -0.701565
     2  C   -0.518795
     3  C   -0.474514
     4  C   -0.472582
     5  C   -0.521090
     6  C   -0.472582
     7  C   -0.474514
     8  H    0.451446
     9  H    0.374103
    10  H    0.450958
    11  H    0.374103
    12  H    0.496536
    13  H    0.495980
    14  H    0.496536
    15  H    0.495980
 Sum of APT charges =  -0.00000
 APT charges with hydrogens summed into heavy atoms:
               1
     1  C    0.046641
     2  C   -0.067349
     3  C    0.021466
     4  C    0.023954
     5  C   -0.070132
     6  C    0.023954
     7  C    0.021466
 Electronic spatial extent (au):  <R**2>=            509.9997
 Charge=             -0.0000 electrons
 Dipole moment (field-independent basis, Debye):
    X=             -0.0040    Y=             -0.0153    Z=              0.0000  Tot=              0.0158
 Quadrupole moment (field-independent basis, Debye-Ang):
   XX=            -39.6278   YY=            -41.6112   ZZ=            -41.9154
   XY=             -0.7689   XZ=              0.0001   YZ=             -0.0000
 Traceless Quadrupole moment (field-independent basis, Debye-Ang):
   XX=              1.4237   YY=             -0.5598   ZZ=             -0.8639
   XY=             -0.7689   XZ=              0.0001   YZ=             -0.0000
 Octapole moment (field-independent basis, Debye-Ang**2):
  XXX=             -1.1718  YYY=              0.6368  ZZZ=              0.0003  XYY=              1.1352
  XXY=             -0.7776  XXZ=              0.0000  XZZ=             -1.3103  YZZ=             -3.7406
  YYZ=             -0.0002  XYZ=             -0.0000
 Hexadecapole moment (field-independent basis, Debye-Ang**3):
 XXXX=           -259.7965 YYYY=           -277.1689 ZZZZ=           -159.3484 XXXY=             -2.6194
 XXXZ=             -0.0008 YYYX=             -4.5050 YYYZ=              0.0023 ZZZX=             -0.0010
 ZZZY=              0.0012 XXYY=            -89.2077 XXZZ=            -69.9227 YYZZ=            -65.6992
 XXYZ=              0.0005 YYXZ=             -0.0002 ZZXY=              1.6505
 N-N= 2.981942117867D+02 E-N=-1.225372632935D+03  KE= 2.698426104795D+02
  Exact polarizability:       0.000       0.000       0.000       0.000       0.000       0.000
 Approx polarizability:      95.237       1.828      99.806      -0.000       0.000      99.365
                          Isotropic Fermi Contact Couplings
        Atom                 a.u.       MegaHertz       Gauss      10(-4) cm-1
     1  C(13)             -0.00000      -0.00000      -0.00000      -0.00000
     2  C(13)              0.00000       0.00000       0.00000       0.00000
     3  C(13)              0.00000       0.00001       0.00001       0.00000
     4  C(13)             -0.00000      -0.00002      -0.00001      -0.00001
     5  C(13)              0.00000       0.00000       0.00000       0.00000
     6  C(13)              0.00000       0.00002       0.00001       0.00001
     7  C(13)             -0.00000      -0.00001      -0.00001      -0.00000
     8  H(1)               0.00000       0.00000       0.00000       0.00000
     9  H(1)              -0.00000      -0.00000      -0.00000      -0.00000
    10  H(1)              -0.00000      -0.00000      -0.00000      -0.00000
    11  H(1)               0.00000       0.00000       0.00000       0.00000
    12  H(1)               0.00000       0.00003       0.00001       0.00001
    13  H(1)              -0.00000      -0.00003      -0.00001      -0.00001
    14  H(1)              -0.00000      -0.00003      -0.00001      -0.00001
    15  H(1)               0.00000       0.00003       0.00001       0.00001
 --------------------------------------------------------
       Center         ----  Spin Dipole Couplings  ----
                      3XX-RR        3YY-RR        3ZZ-RR
 --------------------------------------------------------
     1   Atom       -0.000000     -0.000000      0.000000
     2   Atom       -0.000000      0.000000     -0.000000
     3   Atom       -0.000000      0.000000      0.000000
     4   Atom        0.000000     -0.000000     -0.000000
     5   Atom        0.000000     -0.000000      0.000000
     6   Atom       -0.000000      0.000000      0.000000
     7   Atom        0.000000     -0.000000     -0.000000
     8   Atom       -0.000000     -0.000000      0.000000
     9   Atom        0.000000     -0.000000      0.000000
    10   Atom       -0.000000     -0.000000      0.000000
    11   Atom       -0.000000      0.000000     -0.000000
    12   Atom       -0.000000     -0.000000      0.000000
    13   Atom        0.000000      0.000000     -0.000000
    14   Atom        0.000000      0.000000     -0.000000
    15   Atom       -0.000000     -0.000000      0.000000
 --------------------------------------------------------
                        XY            XZ            YZ
 --------------------------------------------------------
     1   Atom       -0.000000     -0.000000      0.000000
     2   Atom       -0.000000      0.000000      0.000000
     3   Atom        0.000000     -0.000000      0.000000
     4   Atom       -0.000000     -0.000000     -0.000000
     5   Atom        0.000000     -0.000000     -0.000000
     6   Atom        0.000000     -0.000000     -0.000000
     7   Atom       -0.000000     -0.000000      0.000000
     8   Atom        0.000000      0.000000      0.000000
     9   Atom        0.000000      0.000000     -0.000000
    10   Atom        0.000000      0.000000     -0.000000
    11   Atom       -0.000000      0.000000     -0.000000
    12   Atom       -0.000000     -0.000000     -0.000000
    13   Atom       -0.000000      0.000000      0.000000
    14   Atom        0.000000     -0.000000     -0.000000
    15   Atom        0.000000      0.000000      0.000000
 --------------------------------------------------------


 ---------------------------------------------------------------------------------
              Anisotropic Spin Dipole Couplings in Principal Axis System
 ---------------------------------------------------------------------------------

       Atom             a.u.   MegaHertz   Gauss  10(-4) cm-1        Axes

              Baa    -0.0000    -0.000    -0.000    -0.000  0.6873 -0.1661  0.7071
     1 C(13)  Bbb    -0.0000    -0.000    -0.000    -0.000  0.2349  0.9720  0.0000
              Bcc     0.0000     0.000     0.000     0.000 -0.6873  0.1661  0.7071
 
              Baa    -0.0000    -0.000    -0.000    -0.000 -0.2537 -0.6600  0.7071
     2 C(13)  Bbb     0.0000     0.000     0.000     0.000  0.9334 -0.3588  0.0000
              Bcc     0.0000     0.000     0.000     0.000  0.2537  0.6600  0.7071
 
              Baa    -0.0000    -0.000    -0.000    -0.000  0.7893 -0.5017  0.3541
     3 C(13)  Bbb    -0.0000    -0.000    -0.000    -0.000  0.6128  0.6071 -0.5058
              Bcc     0.0000     0.000     0.000     0.000  0.0388  0.6162  0.7866
 
              Baa    -0.0000    -0.000    -0.000    -0.000  0.3534  0.5081  0.7855
     4 C(13)  Bbb     0.0000     0.000     0.000     0.000 -0.0962  0.8549 -0.5098
              Bcc     0.0000     0.000     0.000     0.000  0.9305 -0.1046 -0.3510
 
              Baa    -0.0000    -0.000    -0.000    -0.000  0.2161  0.6733  0.7071
     5 C(13)  Bbb    -0.0000    -0.000    -0.000    -0.000  0.9521 -0.3057  0.0000
              Bcc     0.0000     0.000     0.000     0.000 -0.2162 -0.6732  0.7071
 
              Baa    -0.0000    -0.000    -0.000    -0.000  0.9305 -0.1045  0.3510
     6 C(13)  Bbb    -0.0000    -0.000    -0.000    -0.000 -0.0962  0.8550  0.5097
              Bcc     0.0000     0.000     0.000     0.000 -0.3534 -0.5081  0.7855
 
              Baa    -0.0000    -0.000    -0.000    -0.000 -0.0388 -0.6162  0.7866
     7 C(13)  Bbb     0.0000     0.000     0.000     0.000  0.6128  0.6071  0.5058
              Bcc     0.0000     0.000     0.000     0.000  0.7893 -0.5017 -0.3540
 
              Baa    -0.0000    -0.000    -0.000    -0.000 -0.6869 -0.1679  0.7071
     8 H(1)   Bbb    -0.0000    -0.000    -0.000    -0.000 -0.2375  0.9714 -0.0000
              Bcc     0.0000     0.000     0.000     0.000  0.6869  0.1680  0.7071
 
              Baa    -0.0000    -0.000    -0.000    -0.000 -0.6336  0.3506  0.6897
     9 H(1)   Bbb    -0.0000    -0.000    -0.000    -0.000  0.3710  0.9199 -0.1269
              Bcc     0.0000     0.000     0.000     0.000  0.6790 -0.1755  0.7129
 
              Baa    -0.0000    -0.000    -0.000    -0.000 -0.4350  0.5575  0.7071
    10 H(1)   Bbb     0.0000     0.000     0.000     0.000  0.7883  0.6152 -0.0000
              Bcc     0.0000     0.000     0.000     0.000  0.4350 -0.5574  0.7071
 
              Baa    -0.0000    -0.000    -0.000    -0.000 -0.6790  0.1755  0.7129
    11 H(1)   Bbb     0.0000     0.000     0.000     0.000  0.3710  0.9199  0.1269
              Bcc     0.0000     0.000     0.000     0.000  0.6335 -0.3506  0.6897
 
              Baa    -0.0000    -0.000    -0.000    -0.000  0.4271  0.6473  0.6313
    12 H(1)   Bbb    -0.0000    -0.000    -0.000    -0.000  0.8451 -0.5340 -0.0241
              Bcc     0.0000     0.000     0.000     0.000 -0.3216 -0.5438  0.7751
 
              Baa    -0.0000    -0.000    -0.000    -0.000 -0.0804 -0.6287  0.7735
    13 H(1)   Bbb     0.0000     0.000     0.000     0.000  0.9952 -0.0946  0.0265
              Bcc     0.0000     0.000     0.000     0.000  0.0565  0.7719  0.6332
 
              Baa    -0.0000    -0.000    -0.000    -0.000  0.3215  0.5439  0.7751
    14 H(1)   Bbb     0.0000     0.000     0.000     0.000  0.8451 -0.5340  0.0242
              Bcc     0.0000     0.000     0.000     0.000  0.4271  0.6473 -0.6314
 
              Baa    -0.0000    -0.000    -0.000    -0.000  0.0566  0.7719 -0.6333
    15 H(1)   Bbb    -0.0000    -0.000    -0.000    -0.000  0.9952 -0.0947 -0.0265
              Bcc     0.0000     0.000     0.000     0.000  0.0804  0.6287  0.7735
 

 ---------------------------------------------------------------------------------


 This type of calculation cannot be archived.


 "TIGER, TIGER BURNING BRIGHT
 IN THE FOREST OF THE NIGHT.
 WHAT IMMORTAL HAND OR EYE
 CAN FRAME THY FEARFUL SYMMETRYE?"
                     - WILLIAM BLAKE
 Job cpu time:       6 days  3 hours 20 minutes  7.3 seconds.
 Elapsed time:       0 days  4 hours 44 minutes 44.4 seconds.
 File lengths (MBytes):  RWF=    239 Int=      0 D2E=      0 Chk=     14 Scr=      1
 Normal termination of Gaussian 16 at Mon Feb  3 19:02:43 2025.
