 Entering Gaussian System, Link 0=g16
 Input=mol.com
 Output=mol.out
 Initial command:
 /share/apps/g16c.01/g16/l1.exe "/scratch/13339/Gau-2822261.inp" -scrdir="/scratch/13339/"
 Entering Link 1 = /share/apps/g16c.01/g16/l1.exe PID=   2822262.
  
 Copyright (c) 1988-2019, Gaussian, Inc.  All Rights Reserved.
  
 This is part of the Gaussian(R) 16 program.  It is based on
 the Gaussian(R) 09 system (copyright 2009, Gaussian, Inc.),
 the Gaussian(R) 03 system (copyright 2003, Gaussian, Inc.),
 the Gaussian(R) 98 system (copyright 1998, Gaussian, Inc.),
 the Gaussian(R) 94 system (copyright 1995, Gaussian, Inc.),
 the Gaussian 92(TM) system (copyright 1992, Gaussian, Inc.),
 the Gaussian 90(TM) system (copyright 1990, Gaussian, Inc.),
 the Gaussian 88(TM) system (copyright 1988, Gaussian, Inc.),
 the Gaussian 86(TM) system (copyright 1986, Carnegie Mellon
 University), and the Gaussian 82(TM) system (copyright 1983,
 Carnegie Mellon University). Gaussian is a federally registered
 trademark of Gaussian, Inc.
  
 This software contains proprietary and confidential information,
 including trade secrets, belonging to Gaussian, Inc.
  
 This software is provided under written license and may be
 used, copied, transmitted, or stored only in accord with that
 written license.
  
 The following legend is applicable only to US Government
 contracts under FAR:
  
                    RESTRICTED RIGHTS LEGEND
  
 Use, reproduction and disclosure by the US Government is
 subject to restrictions as set forth in subparagraphs (a)
 and (c) of the Commercial Computer Software - Restricted
 Rights clause in FAR 52.227-19.
  
 Gaussian, Inc.
 340 Quinnipiac St., Bldg. 40, Wallingford CT 06492
  
  
 ---------------------------------------------------------------
 Warning -- This program may not be used in any manner that
 competes with the business of Gaussian, Inc. or will provide
 assistance to any competitor of Gaussian, Inc.  The licensee
 of this program is prohibited from giving any competitor of
 Gaussian, Inc. access to this program.  By using this program,
 the user acknowledges that Gaussian, Inc. is engaged in the
 business of creating and licensing software in the field of
 computational chemistry and represents and warrants to the
 licensee that it is not a competitor of Gaussian, Inc. and that
 it will not use this program in any manner prohibited above.
 ---------------------------------------------------------------
  

 Cite this work as:
 Gaussian 16, Revision C.01,
 M. J. Frisch, G. W. Trucks, H. B. Schlegel, G. E. Scuseria, 
 M. A. Robb, J. R. Cheeseman, G. Scalmani, V. Barone, 
 G. A. Petersson, H. Nakatsuji, X. Li, M. Caricato, A. V. Marenich, 
 J. Bloino, B. G. Janesko, R. Gomperts, B. Mennucci, H. P. Hratchian, 
 J. V. Ortiz, A. F. Izmaylov, J. L. Sonnenberg, D. Williams-Young, 
 F. Ding, F. Lipparini, F. Egidi, J. Goings, B. Peng, A. Petrone, 
 T. Henderson, D. Ranasinghe, V. G. Zakrzewski, J. Gao, N. Rega, 
 G. Zheng, W. Liang, M. Hada, M. Ehara, K. Toyota, R. Fukuda, 
 J. Hasegawa, M. Ishida, T. Nakajima, Y. Honda, O. Kitao, H. Nakai, 
 T. Vreven, K. Throssell, J. A. Montgomery, Jr., J. E. Peralta, 
 F. Ogliaro, M. J. Bearpark, J. J. Heyd, E. N. Brothers, K. N. Kudin, 
 V. N. Staroverov, T. A. Keith, R. Kobayashi, J. Normand, 
 K. Raghavachari, A. P. Rendell, J. C. Burant, S. S. Iyengar, 
 J. Tomasi, M. Cossi, J. M. Millam, M. Klene, C. Adamo, R. Cammi, 
 J. W. Ochterski, R. L. Martin, K. Morokuma, O. Farkas, 
 J. B. Foresman, and D. J. Fox, Gaussian, Inc., Wallingford CT, 2019.
 
 ******************************************
 Gaussian 16:  ES64L-G16RevC.01  3-Jul-2019
                20-Oct-2025 
 ******************************************
 %mem=4GB
 %nprocshared=4
 Will use up to    4 processors via shared memory.
 ----------------------------------------------
 # NMR=GIAO B972/6-311+G(d,p) Geom=connectivity
 ----------------------------------------------
 1/38=1,57=2,172=1/1;
 2/12=2,17=6,18=5,40=1/2;
 3/5=4,6=6,7=111,11=2,25=1,30=1,74=-21/1,2,3,8;
 4//1;
 5/5=2,38=5/2;
 8/6=1,10=90,11=11/1;
 10/13=100,45=16/2;
 6/7=2,8=2,9=2,10=2,28=1/1;
 99/9=1/99;
 -----------------------
 Molecule with Bq points
 -----------------------
 Symbolic Z-matrix:
 Charge =  0 Multiplicity = 1
 C                    -3.65601  -0.71248  -0.00022 
 C                    -2.4771   -1.40526  -0.00032 
 C                    -1.22211  -0.72145  -0.00014 
 C                    -1.22208   0.72142   0.00006 
 C                    -2.47708   1.40537   0.00021 
 C                    -3.65592   0.71248   0.0001 
 C                    -0.00002  -1.40201  -0.00025 
 C                     0.00002   1.40203   0.00025 
 C                     1.2221    0.72135   0.00019 
 C                     1.22208  -0.7215   -0.00011 
 C                     2.47717  -1.40534  -0.00019 
 H                     2.47631  -2.49041  -0.00032 
 C                     3.65596  -0.71245  -0.00005 
 C                     3.65597   0.7126    0.00017 
 C                     2.47703   1.40528   0.0003 
 H                     0.00002  -2.48794  -0.00036 
 H                    -4.60057  -1.24466  -0.00032 
 H                    -2.47632  -2.4904   -0.00056 
 H                    -2.47647   2.49041   0.00034 
 H                    -4.6006    1.24452   0.00017 
 H                    -0.00001   2.4879    0.00044 
 H                     4.60063  -1.24448  -0.00022 
 H                     4.60068   1.2445    0.00033 
 H                     2.47629   2.4904    0.00045 
 Bq                   -3.06656  -1.05887   0.99973 
 Bq                   -3.05664  -1.04179   0.99973 
 Bq                   -3.04672  -1.02471   0.99974 
 Bq                   -3.03681  -1.00763   0.99974 
 Bq                   -3.02689  -0.99056   0.99974 
 Bq                   -3.01697  -0.97348   0.99975 
 Bq                   -3.00705  -0.9564    0.99975 
 Bq                   -2.99714  -0.93932   0.99976 
 Bq                   -2.98722  -0.92224   0.99976 
 Bq                   -2.9773   -0.90516   0.99976 
 Bq                   -2.96739  -0.88808   0.99977 
 Bq                   -2.95747  -0.871     0.99977 
 Bq                   -2.94755  -0.85393   0.99977 
 Bq                   -2.93764  -0.83685   0.99978 
 Bq                   -2.92772  -0.81977   0.99978 
 Bq                   -2.9178   -0.80269   0.99978 
 Bq                   -2.90789  -0.78561   0.99979 
 Bq                   -2.89797  -0.76853   0.99979 
 Bq                   -2.88805  -0.75145   0.99979 
 Bq                   -2.87814  -0.73437   0.9998 
 Bq                   -2.86822  -0.7173    0.9998 
 Bq                   -2.8583   -0.70022   0.9998 
 Bq                   -2.84839  -0.68314   0.99981 
 Bq                   -2.83847  -0.66606   0.99981 
 Bq                   -2.82855  -0.64898   0.99982 
 Bq                   -2.81864  -0.6319    0.99982 
 Bq                   -2.80872  -0.61482   0.99982 
 Bq                   -2.7988   -0.59774   0.99983 
 Bq                   -2.78889  -0.58067   0.99983 
 Bq                   -2.77897  -0.56359   0.99983 
 Bq                   -2.76905  -0.54651   0.99984 
 Bq                   -2.75914  -0.52943   0.99984 
 Bq                   -2.74922  -0.51235   0.99984 
 Bq                   -2.7393   -0.49527   0.99985 
 Bq                   -2.72939  -0.47819   0.99985 
 Bq                   -2.71947  -0.46111   0.99985 
 Bq                   -2.70955  -0.44404   0.99986 
 Bq                   -2.69964  -0.42696   0.99986 
 Bq                   -2.68972  -0.40988   0.99986 
 Bq                   -2.6798   -0.3928    0.99987 
 Bq                   -2.66989  -0.37572   0.99987 
 Bq                   -2.65997  -0.35864   0.99987 
 Bq                   -2.65005  -0.34156   0.99988 
 Bq                   -2.64014  -0.32448   0.99988 
 Bq                   -2.63022  -0.3074    0.99989 
 Bq                   -2.6203   -0.29033   0.99989 
 Bq                   -2.61038  -0.27325   0.99989 
 Bq                   -2.60047  -0.25617   0.9999 
 Bq                   -2.59055  -0.23909   0.9999 
 Bq                   -2.58063  -0.22201   0.9999 
 Bq                   -2.57072  -0.20493   0.99991 
 Bq                   -2.5608   -0.18785   0.99991 
 Bq                   -2.55088  -0.17077   0.99991 
 Bq                   -2.54097  -0.1537    0.99992 
 Bq                   -2.53105  -0.13662   0.99992 
 Bq                   -2.52113  -0.11954   0.99992 
 Bq                   -2.51122  -0.10246   0.99993 
 Bq                   -2.5013   -0.08538   0.99993 
 Bq                   -2.49138  -0.0683    0.99993 
 Bq                   -2.48147  -0.05122   0.99994 
 Bq                   -2.47155  -0.03414   0.99994 
 Bq                   -2.46163  -0.01707   0.99995 
 Bq                   -2.45172   0.00001   0.99995 
 Bq                   -2.43188   0.00001   0.99995 
 Bq                   -2.41205   0.00001   0.99995 
 Bq                   -2.39222   0.00001   0.99995 
 Bq                   -2.37239   0.00001   0.99995 
 Bq                   -2.35255   0.00001   0.99995 
 Bq                   -2.33272   0.00001   0.99995 
 Bq                   -2.31289   0.00001   0.99995 
 Bq                   -2.29306   0.00001   0.99995 
 Bq                   -2.27322   0.00001   0.99995 
 Bq                   -2.25339   0.00001   0.99995 
 Bq                   -2.23356   0.00001   0.99995 
 Bq                   -2.21373   0.00001   0.99995 
 Bq                   -2.19389   0.00001   0.99995 
 Bq                   -2.17406   0.00001   0.99995 
 Bq                   -2.15423   0.00001   0.99995 
 Bq                   -2.1344    0.00001   0.99995 
 Bq                   -2.11456   0.00001   0.99995 
 Bq                   -2.09473   0.00001   0.99995 
 Bq                   -2.0749    0.00001   0.99995 
 Bq                   -2.05506   0.        0.99995 
 Bq                   -2.03523   0.        0.99995 
 Bq                   -2.0154    0.        0.99995 
 Bq                   -1.99557   0.        0.99995 
 Bq                   -1.97573   0.        0.99995 
 Bq                   -1.9559    0.        0.99995 
 Bq                   -1.93607   0.        0.99995 
 Bq                   -1.91624   0.        0.99995 
 Bq                   -1.8964    0.        0.99995 
 Bq                   -1.87657   0.        0.99995 
 Bq                   -1.85674   0.        0.99995 
 Bq                   -1.83691  0.         0.99995 
 Bq                   -1.81707  0.         0.99995 
 Bq                   -1.79724  0.         0.99996 
 Bq                   -1.77741  0.         0.99996 
 Bq                   -1.75758  0.         0.99996 
 Bq                   -1.73774  0.         0.99996 
 Bq                   -1.71791  0.         0.99996 
 Bq                   -1.69808  0.         0.99996 
 Bq                   -1.67825  0.         0.99996 
 Bq                   -1.65841  -0.00001   0.99996 
 Bq                   -1.63858  -0.00001   0.99996 
 Bq                   -1.61875  -0.00001   0.99996 
 Bq                   -1.59892  -0.00001   0.99996 
 Bq                   -1.57908  -0.00001   0.99996 
 Bq                   -1.55925  -0.00001   0.99996 
 Bq                   -1.53942  -0.00001   0.99996 
 Bq                   -1.51958  -0.00001   0.99996 
 Bq                   -1.49975  -0.00001   0.99996 
 Bq                   -1.47992  -0.00001   0.99996 
 Bq                   -1.46009  -0.00001   0.99996 
 Bq                   -1.44025  -0.00001   0.99996 
 Bq                   -1.42042  -0.00001   0.99996 
 Bq                   -1.40059  -0.00001   0.99996 
 Bq                   -1.38076  -0.00001   0.99996 
 Bq                   -1.36092  -0.00001   0.99996 
 Bq                   -1.34109  -0.00001   0.99996 
 Bq                   -1.32126  -0.00001   0.99996 
 Bq                   -1.30143  -0.00001   0.99996 
 Bq                   -1.28159  -0.00001   0.99996 
 Bq                   -1.26176  -0.00001   0.99996 
 Bq                   -1.24193  -0.00002   0.99996 
 Bq                   -1.2221   -0.00002   0.99996 
 Bq                   -1.20238  -0.00002   0.99996 
 Bq                   -1.18267  -0.00002   0.99996 
 Bq                   -1.16296  -0.00002   0.99996 
 Bq                   -1.14325  -0.00002   0.99996 
 Bq                   -1.12354  -0.00002   0.99996 
 Bq                   -1.10383  -0.00002   0.99996 
 Bq                   -1.08412  -0.00002   0.99997 
 Bq                   -1.06441  -0.00002   0.99997 
 Bq                   -1.04469  -0.00002   0.99997 
 Bq                   -1.02498  -0.00002   0.99997 
 Bq                   -1.00527  -0.00002   0.99997 
 Bq                   -0.98556  -0.00002   0.99997 
 Bq                   -0.96585  -0.00002   0.99997 
 Bq                   -0.94614  -0.00002   0.99997 
 Bq                   -0.92643  -0.00002   0.99997 
 Bq                   -0.90672  -0.00002   0.99997 
 Bq                   -0.88701  -0.00002   0.99997 
 Bq                   -0.86729  -0.00002   0.99997 
 Bq                   -0.84758  -0.00002   0.99997 
 Bq                   -0.82787  -0.00002   0.99997 
 Bq                   -0.80816  -0.00002   0.99997 
 Bq                   -0.78845  -0.00002   0.99997 
 Bq                   -0.76874  -0.00002   0.99998 
 Bq                   -0.74903  -0.00002   0.99998 
 Bq                   -0.72932  -0.00002   0.99998 
 Bq                   -0.7096   -0.00002   0.99998 
 Bq                   -0.68989  -0.00002   0.99998 
 Bq                   -0.67018  -0.00002   0.99998 
 Bq                   -0.65047  -0.00002   0.99998 
 Bq                   -0.63076  -0.00002   0.99998 
 Bq                   -0.61105  -0.00002   0.99998 
 Bq                   -0.59134  -0.00002   0.99998 
 Bq                   -0.57163  -0.00002   0.99998 
 Bq                   -0.55192  -0.00002   0.99998 
 Bq                   -0.5322   -0.00002   0.99998 
 Bq                   -0.51249  -0.00002   0.99998 
 Bq                   -0.49278  -0.00002   0.99998 
 Bq                   -0.47307  -0.00002   0.99999 
 Bq                   -0.45336  -0.00002   0.99999 
 Bq                   -0.43365  -0.00002   0.99999 
 Bq                   -0.41394  -0.00002   0.99999 
 Bq                   -0.39423  -0.00002   0.99999 
 Bq                   -0.37451  -0.00002   0.99999 
 Bq                   -0.3548   -0.00002   0.99999 
 Bq                   -0.33509  -0.00002   0.99999 
 Bq                   -0.31538  -0.00002   0.99999 
 Bq                   -0.29567  -0.00002   0.99999 
 Bq                   -0.27596  -0.00002   0.99999 
 Bq                   -0.25625  -0.00002   0.99999 
 Bq                   -0.23654  -0.00002   0.99999 
 Bq                   -0.21683  -0.00003   0.99999 
 Bq                   -0.19711  -0.00003   0.99999 
 Bq                   -0.1774   -0.00003   0.99999 
 Bq                   -0.15769  -0.00003   1. 
 Bq                   -0.13798  -0.00003   1. 
 Bq                   -0.11827  -0.00003   1. 
 Bq                   -0.09856  -0.00003   1. 
 Bq                   -0.07885  -0.00003   1. 
 Bq                   -0.05914  -0.00003   1. 
 Bq                   -0.03942  -0.00003   1. 
 Bq                   -0.01971  -0.00003   1. 
 Bq                   0.        -0.00003   1. 
 Bq                    0.01971  -0.00003   1. 
 Bq                    0.03942  -0.00003   1. 
 Bq                    0.05913  -0.00003   1. 
 Bq                    0.07884  -0.00003   1. 
 Bq                    0.09855  -0.00003   1. 
 Bq                    0.11827  -0.00003   1. 
 Bq                    0.13798  -0.00003   1.00001 
 Bq                    0.15769  -0.00003   1.00001 
 Bq                    0.1774   -0.00003   1.00001 
 Bq                    0.19711  -0.00003   1.00001 
 Bq                    0.21682  -0.00004   1.00001 
 Bq                    0.23653  -0.00004   1.00001 
 Bq                    0.25624  -0.00004   1.00001 
 Bq                    0.27596  -0.00004   1.00001 
 Bq                    0.29567  -0.00004   1.00001 
 Bq                    0.31538  -0.00004   1.00001 
 Bq                    0.33509  -0.00004   1.00001 
 Bq                    0.3548   -0.00004   1.00001 
 Bq                    0.37451  -0.00004   1.00001 
 Bq                    0.39422  -0.00004   1.00001 
 Bq                    0.41393  -0.00004   1.00001 
 Bq                    0.43364  -0.00004   1.00001 
 Bq                    0.45336  -0.00005   1.00002 
 Bq                    0.47307  -0.00005   1.00002 
 Bq                    0.49278  -0.00005   1.00002 
 Bq                    0.51249  -0.00005   1.00002 
 Bq                    0.5322   -0.00005   1.00002 
 Bq                    0.55191  -0.00005   1.00002 
 Bq                    0.57162  -0.00005   1.00002 
 Bq                    0.59133  -0.00005   1.00002 
 Bq                    0.61104  -0.00005   1.00002 
 Bq                    0.63076  -0.00005   1.00002 
 Bq                    0.65047  -0.00005   1.00002 
 Bq                    0.67018  -0.00005   1.00002 
 Bq                    0.68989  -0.00005   1.00002 
 Bq                    0.7096   -0.00006   1.00002 
 Bq                    0.72931  -0.00006   1.00002 
 Bq                    0.74902  -0.00006   1.00002 
 Bq                    0.76873  -0.00006   1.00002 
 Bq                    0.78845  -0.00006   1.00003 
 Bq                    0.80816  -0.00006   1.00003 
 Bq                    0.82787  -0.00006   1.00003 
 Bq                    0.84758  -0.00006   1.00003 
 Bq                    0.86729  -0.00006   1.00003 
 Bq                    0.887    -0.00006   1.00003 
 Bq                    0.90671  -0.00006   1.00003 
 Bq                    0.92642  -0.00006   1.00003 
 Bq                    0.94613  -0.00006   1.00003 
 Bq                    0.96585  -0.00007   1.00003 
 Bq                    0.98556  -0.00007   1.00003 
 Bq                    1.00527  -0.00007   1.00003 
 Bq                    1.02498  -0.00007   1.00003 
 Bq                    1.04469  -0.00007   1.00003 
 Bq                    1.0644   -0.00007   1.00004 
 Bq                    1.08411  -0.00007   1.00004 
 Bq                    1.10382  -0.00007   1.00004 
 Bq                    1.12353  -0.00007   1.00004 
 Bq                    1.14325  -0.00007   1.00004 
 Bq                    1.16296  -0.00007   1.00004 
 Bq                    1.18267  -0.00007   1.00004 
 Bq                    1.20238  -0.00007   1.00004 
 Bq                    1.22209  -0.00008   1.00004 
 Bq                    1.24192  -0.00007   1.00004 
 Bq                    1.26176  -0.00007   1.00004 
 Bq                    1.28159  -0.00007   1.00004 
 Bq                    1.30142  -0.00007   1.00004 
 Bq                    1.32125  -0.00007   1.00004 
 Bq                    1.34109  -0.00007   1.00004 
 Bq                    1.36092  -0.00007   1.00004 
 Bq                    1.38075  -0.00007   1.00004 
 Bq                    1.40058  -0.00007   1.00004 
 Bq                    1.42042  -0.00007   1.00004 
 Bq                    1.44025  -0.00006   1.00004 
 Bq                    1.46008  -0.00006   1.00004 
 Bq                    1.47992  -0.00006   1.00004 
 Bq                    1.49975  -0.00006   1.00004 
 Bq                    1.51958  -0.00006   1.00004 
 Bq                    1.53941  -0.00006   1.00004 
 Bq                    1.55925  -0.00006   1.00004 
 Bq                    1.57908  -0.00006   1.00004 
 Bq                    1.59891  -0.00006   1.00004 
 Bq                    1.61874  -0.00005   1.00004 
 Bq                    1.63858  -0.00005   1.00004 
 Bq                    1.65841  -0.00005   1.00004 
 Bq                    1.67824  -0.00005   1.00004 
 Bq                    1.69808  -0.00005   1.00005 
 Bq                    1.71791  -0.00005   1.00005 
 Bq                    1.73774  -0.00005   1.00005 
 Bq                    1.75757  -0.00005   1.00005 
 Bq                    1.77741  -0.00005   1.00005 
 Bq                    1.79724  -0.00005   1.00005 
 Bq                    1.81707  -0.00004   1.00005 
 Bq                    1.8369   -0.00004   1.00005 
 Bq                    1.85674  -0.00004   1.00005 
 Bq                    1.87657  -0.00004   1.00005 
 Bq                    1.8964   -0.00004   1.00005 
 Bq                    1.91624  -0.00004   1.00005 
 Bq                    1.93607  -0.00004   1.00005 
 Bq                    1.9559   -0.00004   1.00005 
 Bq                    1.97573  -0.00004   1.00005 
 Bq                    1.99557  -0.00003   1.00005 
 Bq                    2.0154   -0.00003   1.00005 
 Bq                    2.03523  -0.00003   1.00005 
 Bq                    2.05506  -0.00003   1.00005 
 Bq                    2.0749   -0.00003   1.00005 
 Bq                    2.09473  -0.00003   1.00005 
 Bq                    2.11456  -0.00003   1.00005 
 Bq                    2.1344   -0.00003   1.00005 
 Bq                    2.15423  -0.00003   1.00005 
 Bq                    2.17406  -0.00003   1.00005 
 Bq                    2.19389  -0.00002   1.00005 
 Bq                    2.21373  -0.00002   1.00005 
 Bq                    2.23356  -0.00002   1.00005 
 Bq                    2.25339  -0.00002   1.00005 
 Bq                    2.27322  -0.00002   1.00005 
 Bq                    2.29306  -0.00002   1.00005 
 Bq                    2.31289  -0.00002   1.00005 
 Bq                    2.33272  -0.00002   1.00005 
 Bq                    2.35256  -0.00002   1.00005 
 Bq                    2.37239  -0.00001   1.00005 
 Bq                    2.39222  -0.00001   1.00005 
 Bq                    2.41205  -0.00001   1.00005 
 Bq                    2.43189  -0.00001   1.00005 
 Bq                    2.45172  -0.00001   1.00005 
 Bq                    2.46163   0.01707   1.00005 
 Bq                    2.47155   0.03415   1.00006 
 Bq                    2.48147   0.05123   1.00006 
 Bq                    2.49138   0.06831   1.00006 
 Bq                    2.5013    0.08539   1.00007 
 Bq                    2.51121   0.10247   1.00007 
 Bq                    2.52113   0.11955   1.00007 
 Bq                    2.53105   0.13663   1.00008 
 Bq                    2.54096   0.15371   1.00008 
 Bq                    2.55088   0.17079   1.00008 
 Bq                    2.56079   0.18787   1.00008 
 Bq                    2.57071   0.20495   1.00009 
 Bq                    2.58062   0.22203   1.00009 
 Bq                    2.59054   0.23911   1.00009 
 Bq                    2.60046   0.25619   1.0001 
 Bq                    2.61037   0.27327   1.0001 
 Bq                    2.62029   0.29035   1.0001 
 Bq                    2.6302    0.30743   1.00011 
 Bq                    2.64012   0.32451   1.00011 
 Bq                    2.65004   0.34159   1.00011 
 Bq                    2.65995   0.35867   1.00011 
 Bq                    2.66987   0.37575   1.00012 
 Bq                    2.67978   0.39283   1.00012 
 Bq                    2.6897    0.40991   1.00012 
 Bq                    2.69961   0.42699   1.00013 
 Bq                    2.70953   0.44407   1.00013 
 Bq                    2.71945   0.46115   1.00013 
 Bq                    2.72936   0.47823   1.00013 
 Bq                    2.73928   0.49531   1.00014 
 Bq                    2.74919   0.51239   1.00014 
 Bq                    2.75911   0.52947   1.00014 
 Bq                    2.76903   0.54655   1.00015 
 Bq                    2.77894   0.56363   1.00015 
 Bq                    2.78886   0.58071   1.00015 
 Bq                    2.79877   0.59778   1.00015 
 Bq                    2.80869   0.61486   1.00016 
 Bq                    2.8186    0.63194   1.00016 
 Bq                    2.82852   0.64902   1.00016 
 Bq                    2.83844   0.6661    1.00017 
 Bq                    2.84835   0.68318   1.00017 
 Bq                    2.85827   0.70026   1.00017 
 Bq                    2.86818   0.71734   1.00018 
 Bq                    2.8781    0.73442   1.00018 
 Bq                    2.88802   0.7515    1.00018 
 Bq                    2.89793   0.76858   1.00019 
 Bq                    2.90785   0.78566   1.00019 
 Bq                    2.91776   0.80274   1.00019 
 Bq                    2.92768   0.81982   1.00019 
 Bq                    2.93759   0.8369    1.0002 
 Bq                    2.94751   0.85398   1.0002 
 Bq                    2.95743   0.87106   1.0002 
 Bq                    2.96734   0.88814   1.00021 
 Bq                    2.97726   0.90522   1.00021 
 Bq                    2.98717   0.9223    1.00021 
 Bq                    2.99709   0.93938   1.00021 
 Bq                    3.007     0.95646   1.00022 
 Bq                    3.01692   0.97354   1.00022 
 Bq                    3.02684   0.99062   1.00022 
 Bq                    3.03675   1.0077    1.00023 
 Bq                    3.04667   1.02478   1.00023 
 Bq                    3.05658   1.04186   1.00023 
 Bq                    3.0665    1.05894   1.00023 
 
 Symmetry turned off:
 Cannot cope with ghost atoms or with translation vectors.
 Stoichiometry    C14H10
 Framework group  C1[X(C14H10)]
 NumDoF:  NAt=    24 NAtoms=   397
 Deg. of freedom     0
 Full point group                 C1      NOp   1
                          Input orientation:                          
 ---------------------------------------------------------------------
 Center     Atomic      Atomic             Coordinates (Angstroms)
 Number     Number       Type             X           Y           Z
 ---------------------------------------------------------------------
      1          6           0       -3.656010   -0.712480   -0.000220
      2          6           0       -2.477100   -1.405260   -0.000320
      3          6           0       -1.222110   -0.721450   -0.000140
      4          6           0       -1.222080    0.721420    0.000060
      5          6           0       -2.477080    1.405370    0.000210
      6          6           0       -3.655920    0.712480    0.000100
      7          6           0       -0.000020   -1.402010   -0.000250
      8          6           0        0.000020    1.402030    0.000250
      9          6           0        1.222100    0.721350    0.000190
     10          6           0        1.222080   -0.721500   -0.000110
     11          6           0        2.477170   -1.405340   -0.000190
     12          1           0        2.476310   -2.490410   -0.000320
     13          6           0        3.655960   -0.712450   -0.000050
     14          6           0        3.655970    0.712600    0.000170
     15          6           0        2.477030    1.405280    0.000300
     16          1           0        0.000020   -2.487940   -0.000360
     17          1           0       -4.600570   -1.244660   -0.000320
     18          1           0       -2.476320   -2.490400   -0.000560
     19          1           0       -2.476470    2.490410    0.000340
     20          1           0       -4.600600    1.244520    0.000170
     21          1           0       -0.000010    2.487900    0.000440
     22          1           0        4.600630   -1.244480   -0.000220
     23          1           0        4.600680    1.244500    0.000330
     24          1           0        2.476290    2.490400    0.000450
     25          0           0       -3.066555   -1.058870    0.999730
     26          0           0       -3.056638   -1.041791    0.999734
     27          0           0       -3.046722   -1.024712    0.999737
     28          0           0       -3.036805   -1.007634    0.999741
     29          0           0       -3.026888   -0.990555    0.999744
     30          0           0       -3.016971   -0.973476    0.999748
     31          0           0       -3.007055   -0.956397    0.999751
     32          0           0       -2.997138   -0.939319    0.999755
     33          0           0       -2.987221   -0.922240    0.999758
     34          0           0       -2.977304   -0.905161    0.999762
     35          0           0       -2.967388   -0.888082    0.999765
     36          0           0       -2.957471   -0.871004    0.999769
     37          0           0       -2.947554   -0.853925    0.999772
     38          0           0       -2.937637   -0.836846    0.999776
     39          0           0       -2.927721   -0.819767    0.999779
     40          0           0       -2.917804   -0.802689    0.999783
     41          0           0       -2.907887   -0.785610    0.999786
     42          0           0       -2.897970   -0.768531    0.999790
     43          0           0       -2.888054   -0.751452    0.999793
     44          0           0       -2.878137   -0.734373    0.999797
     45          0           0       -2.868220   -0.717295    0.999800
     46          0           0       -2.858303   -0.700216    0.999804
     47          0           0       -2.848387   -0.683137    0.999807
     48          0           0       -2.838470   -0.666058    0.999811
     49          0           0       -2.828553   -0.648980    0.999815
     50          0           0       -2.818636   -0.631901    0.999818
     51          0           0       -2.808720   -0.614822    0.999822
     52          0           0       -2.798803   -0.597743    0.999825
     53          0           0       -2.788886   -0.580665    0.999829
     54          0           0       -2.778969   -0.563586    0.999832
     55          0           0       -2.769053   -0.546507    0.999836
     56          0           0       -2.759136   -0.529428    0.999839
     57          0           0       -2.749219   -0.512350    0.999843
     58          0           0       -2.739302   -0.495271    0.999846
     59          0           0       -2.729386   -0.478192    0.999850
     60          0           0       -2.719469   -0.461113    0.999853
     61          0           0       -2.709552   -0.444035    0.999857
     62          0           0       -2.699635   -0.426956    0.999860
     63          0           0       -2.689719   -0.409877    0.999864
     64          0           0       -2.679802   -0.392798    0.999867
     65          0           0       -2.669885   -0.375719    0.999871
     66          0           0       -2.659968   -0.358641    0.999874
     67          0           0       -2.650052   -0.341562    0.999878
     68          0           0       -2.640135   -0.324483    0.999881
     69          0           0       -2.630218   -0.307404    0.999885
     70          0           0       -2.620301   -0.290326    0.999888
     71          0           0       -2.610385   -0.273247    0.999892
     72          0           0       -2.600468   -0.256168    0.999896
     73          0           0       -2.590551   -0.239089    0.999899
     74          0           0       -2.580634   -0.222011    0.999903
     75          0           0       -2.570718   -0.204932    0.999906
     76          0           0       -2.560801   -0.187853    0.999910
     77          0           0       -2.550884   -0.170774    0.999913
     78          0           0       -2.540967   -0.153696    0.999917
     79          0           0       -2.531051   -0.136617    0.999920
     80          0           0       -2.521134   -0.119538    0.999924
     81          0           0       -2.511217   -0.102459    0.999927
     82          0           0       -2.501300   -0.085380    0.999931
     83          0           0       -2.491384   -0.068302    0.999934
     84          0           0       -2.481467   -0.051223    0.999938
     85          0           0       -2.471550   -0.034144    0.999941
     86          0           0       -2.461633   -0.017065    0.999945
     87          0           0       -2.451717    0.000013    0.999948
     88          0           0       -2.431884    0.000013    0.999949
     89          0           0       -2.412051    0.000012    0.999949
     90          0           0       -2.392219    0.000012    0.999949
     91          0           0       -2.372386    0.000012    0.999949
     92          0           0       -2.352554    0.000011    0.999949
     93          0           0       -2.332721    0.000011    0.999949
     94          0           0       -2.312888    0.000010    0.999950
     95          0           0       -2.293056    0.000010    0.999950
     96          0           0       -2.273223    0.000009    0.999950
     97          0           0       -2.253391    0.000009    0.999950
     98          0           0       -2.233558    0.000008    0.999950
     99          0           0       -2.213725    0.000008    0.999951
    100          0           0       -2.193893    0.000007    0.999951
    101          0           0       -2.174060    0.000007    0.999951
    102          0           0       -2.154228    0.000006    0.999951
    103          0           0       -2.134395    0.000006    0.999951
    104          0           0       -2.114562    0.000006    0.999952
    105          0           0       -2.094730    0.000005    0.999952
    106          0           0       -2.074897    0.000005    0.999952
    107          0           0       -2.055065    0.000004    0.999952
    108          0           0       -2.035232    0.000004    0.999952
    109          0           0       -2.015399    0.000003    0.999952
    110          0           0       -1.995567    0.000003    0.999953
    111          0           0       -1.975734    0.000002    0.999953
    112          0           0       -1.955901    0.000002    0.999953
    113          0           0       -1.936069    0.000001    0.999953
    114          0           0       -1.916236    0.000001    0.999953
    115          0           0       -1.896404    0.000001    0.999954
    116          0           0       -1.876571    0.000000    0.999954
    117          0           0       -1.856738    0.000000    0.999954
    118          0           0       -1.836906   -0.000001    0.999954
    119          0           0       -1.817073   -0.000001    0.999954
    120          0           0       -1.797241   -0.000002    0.999955
    121          0           0       -1.777408   -0.000002    0.999955
    122          0           0       -1.757575   -0.000003    0.999955
    123          0           0       -1.737743   -0.000003    0.999955
    124          0           0       -1.717910   -0.000004    0.999955
    125          0           0       -1.698078   -0.000004    0.999955
    126          0           0       -1.678245   -0.000004    0.999956
    127          0           0       -1.658412   -0.000005    0.999956
    128          0           0       -1.638580   -0.000005    0.999956
    129          0           0       -1.618747   -0.000006    0.999956
    130          0           0       -1.598915   -0.000006    0.999956
    131          0           0       -1.579082   -0.000007    0.999957
    132          0           0       -1.559249   -0.000007    0.999957
    133          0           0       -1.539417   -0.000008    0.999957
    134          0           0       -1.519584   -0.000008    0.999957
    135          0           0       -1.499752   -0.000009    0.999957
    136          0           0       -1.479919   -0.000009    0.999958
    137          0           0       -1.460086   -0.000010    0.999958
    138          0           0       -1.440254   -0.000010    0.999958
    139          0           0       -1.420421   -0.000010    0.999958
    140          0           0       -1.400588   -0.000011    0.999958
    141          0           0       -1.380756   -0.000011    0.999958
    142          0           0       -1.360923   -0.000012    0.999959
    143          0           0       -1.341091   -0.000012    0.999959
    144          0           0       -1.321258   -0.000013    0.999959
    145          0           0       -1.301425   -0.000013    0.999959
    146          0           0       -1.281593   -0.000014    0.999959
    147          0           0       -1.261760   -0.000014    0.999960
    148          0           0       -1.241928   -0.000015    0.999960
    149          0           0       -1.222095   -0.000015    0.999960
    150          0           0       -1.202384   -0.000015    0.999961
    151          0           0       -1.182673   -0.000015    0.999961
    152          0           0       -1.162961   -0.000016    0.999962
    153          0           0       -1.143250   -0.000016    0.999963
    154          0           0       -1.123539   -0.000016    0.999963
    155          0           0       -1.103828   -0.000016    0.999964
    156          0           0       -1.084117   -0.000016    0.999965
    157          0           0       -1.064406   -0.000017    0.999965
    158          0           0       -1.044694   -0.000017    0.999966
    159          0           0       -1.024983   -0.000017    0.999966
    160          0           0       -1.005272   -0.000017    0.999967
    161          0           0       -0.985561   -0.000017    0.999968
    162          0           0       -0.965850   -0.000017    0.999968
    163          0           0       -0.946138   -0.000018    0.999969
    164          0           0       -0.926427   -0.000018    0.999970
    165          0           0       -0.906716   -0.000018    0.999970
    166          0           0       -0.887005   -0.000018    0.999971
    167          0           0       -0.867294   -0.000018    0.999972
    168          0           0       -0.847583   -0.000019    0.999972
    169          0           0       -0.827871   -0.000019    0.999973
    170          0           0       -0.808160   -0.000019    0.999974
    171          0           0       -0.788449   -0.000019    0.999974
    172          0           0       -0.768738   -0.000019    0.999975
    173          0           0       -0.749027   -0.000020    0.999975
    174          0           0       -0.729315   -0.000020    0.999976
    175          0           0       -0.709604   -0.000020    0.999977
    176          0           0       -0.689893   -0.000020    0.999977
    177          0           0       -0.670182   -0.000020    0.999978
    178          0           0       -0.650471   -0.000020    0.999979
    179          0           0       -0.630760   -0.000021    0.999979
    180          0           0       -0.611048   -0.000021    0.999980
    181          0           0       -0.591337   -0.000021    0.999981
    182          0           0       -0.571626   -0.000021    0.999981
    183          0           0       -0.551915   -0.000021    0.999982
    184          0           0       -0.532204   -0.000022    0.999983
    185          0           0       -0.512492   -0.000022    0.999983
    186          0           0       -0.492781   -0.000022    0.999984
    187          0           0       -0.473070   -0.000022    0.999985
    188          0           0       -0.453359   -0.000022    0.999985
    189          0           0       -0.433648   -0.000023    0.999986
    190          0           0       -0.413937   -0.000023    0.999986
    191          0           0       -0.394225   -0.000023    0.999987
    192          0           0       -0.374514   -0.000023    0.999988
    193          0           0       -0.354803   -0.000023    0.999988
    194          0           0       -0.335092   -0.000023    0.999989
    195          0           0       -0.315381   -0.000024    0.999990
    196          0           0       -0.295669   -0.000024    0.999990
    197          0           0       -0.275958   -0.000024    0.999991
    198          0           0       -0.256247   -0.000024    0.999992
    199          0           0       -0.236536   -0.000024    0.999992
    200          0           0       -0.216825   -0.000025    0.999993
    201          0           0       -0.197113   -0.000025    0.999994
    202          0           0       -0.177402   -0.000025    0.999994
    203          0           0       -0.157691   -0.000025    0.999995
    204          0           0       -0.137980   -0.000025    0.999995
    205          0           0       -0.118269   -0.000026    0.999996
    206          0           0       -0.098558   -0.000026    0.999997
    207          0           0       -0.078846   -0.000026    0.999997
    208          0           0       -0.059135   -0.000026    0.999998
    209          0           0       -0.039424   -0.000026    0.999999
    210          0           0       -0.019713   -0.000026    0.999999
    211          0           0       -0.000002   -0.000027    1.000000
    212          0           0        0.019709   -0.000027    1.000001
    213          0           0        0.039421   -0.000028    1.000001
    214          0           0        0.059132   -0.000029    1.000002
    215          0           0        0.078843   -0.000030    1.000003
    216          0           0        0.098554   -0.000031    1.000003
    217          0           0        0.118265   -0.000031    1.000004
    218          0           0        0.137976   -0.000032    1.000005
    219          0           0        0.157688   -0.000033    1.000005
    220          0           0        0.177399   -0.000034    1.000006
    221          0           0        0.197110   -0.000034    1.000006
    222          0           0        0.216821   -0.000035    1.000007
    223          0           0        0.236532   -0.000036    1.000008
    224          0           0        0.256243   -0.000037    1.000008
    225          0           0        0.275955   -0.000038    1.000009
    226          0           0        0.295666   -0.000038    1.000010
    227          0           0        0.315377   -0.000039    1.000010
    228          0           0        0.335088   -0.000040    1.000011
    229          0           0        0.354799   -0.000041    1.000012
    230          0           0        0.374510   -0.000041    1.000012
    231          0           0        0.394221   -0.000042    1.000013
    232          0           0        0.413933   -0.000043    1.000014
    233          0           0        0.433644   -0.000044    1.000014
    234          0           0        0.453355   -0.000045    1.000015
    235          0           0        0.473066   -0.000045    1.000015
    236          0           0        0.492777   -0.000046    1.000016
    237          0           0        0.512488   -0.000047    1.000017
    238          0           0        0.532200   -0.000048    1.000017
    239          0           0        0.551911   -0.000048    1.000018
    240          0           0        0.571622   -0.000049    1.000019
    241          0           0        0.591333   -0.000050    1.000019
    242          0           0        0.611044   -0.000051    1.000020
    243          0           0        0.630755   -0.000052    1.000021
    244          0           0        0.650466   -0.000052    1.000021
    245          0           0        0.670178   -0.000053    1.000022
    246          0           0        0.689889   -0.000054    1.000023
    247          0           0        0.709600   -0.000055    1.000023
    248          0           0        0.729311   -0.000056    1.000024
    249          0           0        0.749022   -0.000056    1.000025
    250          0           0        0.768733   -0.000057    1.000025
    251          0           0        0.788445   -0.000058    1.000026
    252          0           0        0.808156   -0.000059    1.000026
    253          0           0        0.827867   -0.000059    1.000027
    254          0           0        0.847578   -0.000060    1.000028
    255          0           0        0.867289   -0.000061    1.000028
    256          0           0        0.887000   -0.000062    1.000029
    257          0           0        0.906712   -0.000063    1.000030
    258          0           0        0.926423   -0.000063    1.000030
    259          0           0        0.946134   -0.000064    1.000031
    260          0           0        0.965845   -0.000065    1.000032
    261          0           0        0.985556   -0.000066    1.000032
    262          0           0        1.005267   -0.000066    1.000033
    263          0           0        1.024978   -0.000067    1.000034
    264          0           0        1.044690   -0.000068    1.000034
    265          0           0        1.064401   -0.000069    1.000035
    266          0           0        1.084112   -0.000070    1.000035
    267          0           0        1.103823   -0.000070    1.000036
    268          0           0        1.123534   -0.000071    1.000037
    269          0           0        1.143245   -0.000072    1.000037
    270          0           0        1.162957   -0.000073    1.000038
    271          0           0        1.182668   -0.000073    1.000039
    272          0           0        1.202379   -0.000074    1.000039
    273          0           0        1.222090   -0.000075    1.000040
    274          0           0        1.241923   -0.000074    1.000040
    275          0           0        1.261755   -0.000073    1.000040
    276          0           0        1.281588   -0.000072    1.000041
    277          0           0        1.301421   -0.000071    1.000041
    278          0           0        1.321254   -0.000070    1.000041
    279          0           0        1.341086   -0.000069    1.000041
    280          0           0        1.360919   -0.000068    1.000041
    281          0           0        1.380752   -0.000067    1.000042
    282          0           0        1.400584   -0.000066    1.000042
    283          0           0        1.420417   -0.000065    1.000042
    284          0           0        1.440250   -0.000063    1.000042
    285          0           0        1.460083   -0.000062    1.000042
    286          0           0        1.479915   -0.000061    1.000042
    287          0           0        1.499748   -0.000060    1.000043
    288          0           0        1.519581   -0.000059    1.000043
    289          0           0        1.539413   -0.000058    1.000043
    290          0           0        1.559246   -0.000057    1.000043
    291          0           0        1.579079   -0.000056    1.000043
    292          0           0        1.598912   -0.000055    1.000044
    293          0           0        1.618744   -0.000054    1.000044
    294          0           0        1.638577   -0.000053    1.000044
    295          0           0        1.658410   -0.000052    1.000044
    296          0           0        1.678242   -0.000051    1.000044
    297          0           0        1.698075   -0.000050    1.000045
    298          0           0        1.717908   -0.000049    1.000045
    299          0           0        1.737741   -0.000048    1.000045
    300          0           0        1.757573   -0.000047    1.000045
    301          0           0        1.777406   -0.000046    1.000045
    302          0           0        1.797239   -0.000045    1.000045
    303          0           0        1.817071   -0.000044    1.000046
    304          0           0        1.836904   -0.000042    1.000046
    305          0           0        1.856737   -0.000041    1.000046
    306          0           0        1.876570   -0.000040    1.000046
    307          0           0        1.896402   -0.000039    1.000046
    308          0           0        1.916235   -0.000038    1.000047
    309          0           0        1.936068   -0.000037    1.000047
    310          0           0        1.955900   -0.000036    1.000047
    311          0           0        1.975733   -0.000035    1.000047
    312          0           0        1.995566   -0.000034    1.000047
    313          0           0        2.015399   -0.000033    1.000048
    314          0           0        2.035231   -0.000032    1.000048
    315          0           0        2.055064   -0.000031    1.000048
    316          0           0        2.074897   -0.000030    1.000048
    317          0           0        2.094729   -0.000029    1.000048
    318          0           0        2.114562   -0.000028    1.000048
    319          0           0        2.134395   -0.000027    1.000049
    320          0           0        2.154228   -0.000026    1.000049
    321          0           0        2.174060   -0.000025    1.000049
    322          0           0        2.193893   -0.000024    1.000049
    323          0           0        2.213726   -0.000023    1.000049
    324          0           0        2.233558   -0.000022    1.000050
    325          0           0        2.253391   -0.000020    1.000050
    326          0           0        2.273224   -0.000019    1.000050
    327          0           0        2.293057   -0.000018    1.000050
    328          0           0        2.312889   -0.000017    1.000050
    329          0           0        2.332722   -0.000016    1.000051
    330          0           0        2.352555   -0.000015    1.000051
    331          0           0        2.372387   -0.000014    1.000051
    332          0           0        2.392220   -0.000013    1.000051
    333          0           0        2.412053   -0.000012    1.000051
    334          0           0        2.431886   -0.000011    1.000051
    335          0           0        2.451718   -0.000010    1.000052
    336          0           0        2.461634    0.017070    1.000055
    337          0           0        2.471550    0.034150    1.000058
    338          0           0        2.481466    0.051230    1.000061
    339          0           0        2.491382    0.068309    1.000063
    340          0           0        2.501298    0.085389    1.000066
    341          0           0        2.511213    0.102469    1.000069
    342          0           0        2.521129    0.119549    1.000072
    343          0           0        2.531045    0.136629    1.000075
    344          0           0        2.540961    0.153709    1.000078
    345          0           0        2.550877    0.170788    1.000081
    346          0           0        2.560793    0.187868    1.000084
    347          0           0        2.570708    0.204948    1.000087
    348          0           0        2.580624    0.222028    1.000090
    349          0           0        2.590540    0.239108    1.000093
    350          0           0        2.600456    0.256188    1.000096
    351          0           0        2.610372    0.273267    1.000099
    352          0           0        2.620287    0.290347    1.000102
    353          0           0        2.630203    0.307427    1.000105
    354          0           0        2.640119    0.324507    1.000108
    355          0           0        2.650035    0.341587    1.000111
    356          0           0        2.659951    0.358667    1.000114
    357          0           0        2.669867    0.375746    1.000117
    358          0           0        2.679782    0.392826    1.000120
    359          0           0        2.689698    0.409906    1.000123
    360          0           0        2.699614    0.426986    1.000126
    361          0           0        2.709530    0.444066    1.000129
    362          0           0        2.719446    0.461146    1.000132
    363          0           0        2.729362    0.478225    1.000134
    364          0           0        2.739278    0.495305    1.000137
    365          0           0        2.749193    0.512385    1.000140
    366          0           0        2.759109    0.529465    1.000143
    367          0           0        2.769025    0.546545    1.000146
    368          0           0        2.778941    0.563625    1.000149
    369          0           0        2.788857    0.580705    1.000152
    370          0           0        2.798773    0.597784    1.000155
    371          0           0        2.808688    0.614864    1.000158
    372          0           0        2.818604    0.631944    1.000161
    373          0           0        2.828520    0.649024    1.000164
    374          0           0        2.838436    0.666104    1.000167
    375          0           0        2.848352    0.683184    1.000170
    376          0           0        2.858268    0.700263    1.000173
    377          0           0        2.868183    0.717343    1.000176
    378          0           0        2.878099    0.734423    1.000179
    379          0           0        2.888015    0.751503    1.000182
    380          0           0        2.897931    0.768583    1.000185
    381          0           0        2.907847    0.785663    1.000188
    382          0           0        2.917763    0.802742    1.000191
    383          0           0        2.927678    0.819822    1.000194
    384          0           0        2.937594    0.836902    1.000197
    385          0           0        2.947510    0.853982    1.000200
    386          0           0        2.957426    0.871062    1.000202
    387          0           0        2.967342    0.888142    1.000205
    388          0           0        2.977257    0.905221    1.000208
    389          0           0        2.987173    0.922301    1.000211
    390          0           0        2.997089    0.939381    1.000214
    391          0           0        3.007005    0.956461    1.000217
    392          0           0        3.016921    0.973541    1.000220
    393          0           0        3.026837    0.990621    1.000223
    394          0           0        3.036752    1.007700    1.000226
    395          0           0        3.046668    1.024780    1.000229
    396          0           0        3.056584    1.041860    1.000232
    397          0           0        3.066500    1.058940    1.000235
 ---------------------------------------------------------------------
 Rotational constants (GHZ):           2.1501466           0.4521053           0.3735583
 Standard basis: 6-311+G(d,p) (5D, 7F)
 Warning:  center  25 has no basis functions!
 Warning:  center  26 has no basis functions!
 Warning:  center  27 has no basis functions!
 Warning:  center  28 has no basis functions!
 Warning:  center  29 has no basis functions!
 Warning:  center  30 has no basis functions!
 Warning:  center  31 has no basis functions!
 Warning:  center  32 has no basis functions!
 Warning:  center  33 has no basis functions!
 Warning:  center  34 has no basis functions!
 Warning:  center  35 has no basis functions!
 Warning:  center  36 has no basis functions!
 Warning:  center  37 has no basis functions!
 Warning:  center  38 has no basis functions!
 Warning:  center  39 has no basis functions!
 Warning:  center  40 has no basis functions!
 Warning:  center  41 has no basis functions!
 Warning:  center  42 has no basis functions!
 Warning:  center  43 has no basis functions!
 Warning:  center  44 has no basis functions!
 Warning:  center  45 has no basis functions!
 Warning:  center  46 has no basis functions!
 Warning:  center  47 has no basis functions!
 Warning:  center  48 has no basis functions!
 Warning:  center  49 has no basis functions!
 Warning:  center  50 has no basis functions!
 Warning:  center  51 has no basis functions!
 Warning:  center  52 has no basis functions!
 Warning:  center  53 has no basis functions!
 Warning:  center  54 has no basis functions!
 Warning:  center  55 has no basis functions!
 Warning:  center  56 has no basis functions!
 Warning:  center  57 has no basis functions!
 Warning:  center  58 has no basis functions!
 Warning:  center  59 has no basis functions!
 Warning:  center  60 has no basis functions!
 Warning:  center  61 has no basis functions!
 Warning:  center  62 has no basis functions!
 Warning:  center  63 has no basis functions!
 Warning:  center  64 has no basis functions!
 Warning:  center  65 has no basis functions!
 Warning:  center  66 has no basis functions!
 Warning:  center  67 has no basis functions!
 Warning:  center  68 has no basis functions!
 Warning:  center  69 has no basis functions!
 Warning:  center  70 has no basis functions!
 Warning:  center  71 has no basis functions!
 Warning:  center  72 has no basis functions!
 Warning:  center  73 has no basis functions!
 Warning:  center  74 has no basis functions!
 Warning:  center  75 has no basis functions!
 Warning:  center  76 has no basis functions!
 Warning:  center  77 has no basis functions!
 Warning:  center  78 has no basis functions!
 Warning:  center  79 has no basis functions!
 Warning:  center  80 has no basis functions!
 Warning:  center  81 has no basis functions!
 Warning:  center  82 has no basis functions!
 Warning:  center  83 has no basis functions!
 Warning:  center  84 has no basis functions!
 Warning:  center  85 has no basis functions!
 Warning:  center  86 has no basis functions!
 Warning:  center  87 has no basis functions!
 Warning:  center  88 has no basis functions!
 Warning:  center  89 has no basis functions!
 Warning:  center  90 has no basis functions!
 Warning:  center  91 has no basis functions!
 Warning:  center  92 has no basis functions!
 Warning:  center  93 has no basis functions!
 Warning:  center  94 has no basis functions!
 Warning:  center  95 has no basis functions!
 Warning:  center  96 has no basis functions!
 Warning:  center  97 has no basis functions!
 Warning:  center  98 has no basis functions!
 Warning:  center  99 has no basis functions!
 Warning:  center 100 has no basis functions!
 Warning:  center 101 has no basis functions!
 Warning:  center 102 has no basis functions!
 Warning:  center 103 has no basis functions!
 Warning:  center 104 has no basis functions!
 Warning:  center 105 has no basis functions!
 Warning:  center 106 has no basis functions!
 Warning:  center 107 has no basis functions!
 Warning:  center 108 has no basis functions!
 Warning:  center 109 has no basis functions!
 Warning:  center 110 has no basis functions!
 Warning:  center 111 has no basis functions!
 Warning:  center 112 has no basis functions!
 Warning:  center 113 has no basis functions!
 Warning:  center 114 has no basis functions!
 Warning:  center 115 has no basis functions!
 Warning:  center 116 has no basis functions!
 Warning:  center 117 has no basis functions!
 Warning:  center 118 has no basis functions!
 Warning:  center 119 has no basis functions!
 Warning:  center 120 has no basis functions!
 Warning:  center 121 has no basis functions!
 Warning:  center 122 has no basis functions!
 Warning:  center 123 has no basis functions!
 Warning:  center 124 has no basis functions!
 Warning:  center 125 has no basis functions!
 Warning:  center 126 has no basis functions!
 Warning:  center 127 has no basis functions!
 Warning:  center 128 has no basis functions!
 Warning:  center 129 has no basis functions!
 Warning:  center 130 has no basis functions!
 Warning:  center 131 has no basis functions!
 Warning:  center 132 has no basis functions!
 Warning:  center 133 has no basis functions!
 Warning:  center 134 has no basis functions!
 Warning:  center 135 has no basis functions!
 Warning:  center 136 has no basis functions!
 Warning:  center 137 has no basis functions!
 Warning:  center 138 has no basis functions!
 Warning:  center 139 has no basis functions!
 Warning:  center 140 has no basis functions!
 Warning:  center 141 has no basis functions!
 Warning:  center 142 has no basis functions!
 Warning:  center 143 has no basis functions!
 Warning:  center 144 has no basis functions!
 Warning:  center 145 has no basis functions!
 Warning:  center 146 has no basis functions!
 Warning:  center 147 has no basis functions!
 Warning:  center 148 has no basis functions!
 Warning:  center 149 has no basis functions!
 Warning:  center 150 has no basis functions!
 Warning:  center 151 has no basis functions!
 Warning:  center 152 has no basis functions!
 Warning:  center 153 has no basis functions!
 Warning:  center 154 has no basis functions!
 Warning:  center 155 has no basis functions!
 Warning:  center 156 has no basis functions!
 Warning:  center 157 has no basis functions!
 Warning:  center 158 has no basis functions!
 Warning:  center 159 has no basis functions!
 Warning:  center 160 has no basis functions!
 Warning:  center 161 has no basis functions!
 Warning:  center 162 has no basis functions!
 Warning:  center 163 has no basis functions!
 Warning:  center 164 has no basis functions!
 Warning:  center 165 has no basis functions!
 Warning:  center 166 has no basis functions!
 Warning:  center 167 has no basis functions!
 Warning:  center 168 has no basis functions!
 Warning:  center 169 has no basis functions!
 Warning:  center 170 has no basis functions!
 Warning:  center 171 has no basis functions!
 Warning:  center 172 has no basis functions!
 Warning:  center 173 has no basis functions!
 Warning:  center 174 has no basis functions!
 Warning:  center 175 has no basis functions!
 Warning:  center 176 has no basis functions!
 Warning:  center 177 has no basis functions!
 Warning:  center 178 has no basis functions!
 Warning:  center 179 has no basis functions!
 Warning:  center 180 has no basis functions!
 Warning:  center 181 has no basis functions!
 Warning:  center 182 has no basis functions!
 Warning:  center 183 has no basis functions!
 Warning:  center 184 has no basis functions!
 Warning:  center 185 has no basis functions!
 Warning:  center 186 has no basis functions!
 Warning:  center 187 has no basis functions!
 Warning:  center 188 has no basis functions!
 Warning:  center 189 has no basis functions!
 Warning:  center 190 has no basis functions!
 Warning:  center 191 has no basis functions!
 Warning:  center 192 has no basis functions!
 Warning:  center 193 has no basis functions!
 Warning:  center 194 has no basis functions!
 Warning:  center 195 has no basis functions!
 Warning:  center 196 has no basis functions!
 Warning:  center 197 has no basis functions!
 Warning:  center 198 has no basis functions!
 Warning:  center 199 has no basis functions!
 Warning:  center 200 has no basis functions!
 Warning:  center 201 has no basis functions!
 Warning:  center 202 has no basis functions!
 Warning:  center 203 has no basis functions!
 Warning:  center 204 has no basis functions!
 Warning:  center 205 has no basis functions!
 Warning:  center 206 has no basis functions!
 Warning:  center 207 has no basis functions!
 Warning:  center 208 has no basis functions!
 Warning:  center 209 has no basis functions!
 Warning:  center 210 has no basis functions!
 Warning:  center 211 has no basis functions!
 Warning:  center 212 has no basis functions!
 Warning:  center 213 has no basis functions!
 Warning:  center 214 has no basis functions!
 Warning:  center 215 has no basis functions!
 Warning:  center 216 has no basis functions!
 Warning:  center 217 has no basis functions!
 Warning:  center 218 has no basis functions!
 Warning:  center 219 has no basis functions!
 Warning:  center 220 has no basis functions!
 Warning:  center 221 has no basis functions!
 Warning:  center 222 has no basis functions!
 Warning:  center 223 has no basis functions!
 Warning:  center 224 has no basis functions!
 Warning:  center 225 has no basis functions!
 Warning:  center 226 has no basis functions!
 Warning:  center 227 has no basis functions!
 Warning:  center 228 has no basis functions!
 Warning:  center 229 has no basis functions!
 Warning:  center 230 has no basis functions!
 Warning:  center 231 has no basis functions!
 Warning:  center 232 has no basis functions!
 Warning:  center 233 has no basis functions!
 Warning:  center 234 has no basis functions!
 Warning:  center 235 has no basis functions!
 Warning:  center 236 has no basis functions!
 Warning:  center 237 has no basis functions!
 Warning:  center 238 has no basis functions!
 Warning:  center 239 has no basis functions!
 Warning:  center 240 has no basis functions!
 Warning:  center 241 has no basis functions!
 Warning:  center 242 has no basis functions!
 Warning:  center 243 has no basis functions!
 Warning:  center 244 has no basis functions!
 Warning:  center 245 has no basis functions!
 Warning:  center 246 has no basis functions!
 Warning:  center 247 has no basis functions!
 Warning:  center 248 has no basis functions!
 Warning:  center 249 has no basis functions!
 Warning:  center 250 has no basis functions!
 Warning:  center 251 has no basis functions!
 Warning:  center 252 has no basis functions!
 Warning:  center 253 has no basis functions!
 Warning:  center 254 has no basis functions!
 Warning:  center 255 has no basis functions!
 Warning:  center 256 has no basis functions!
 Warning:  center 257 has no basis functions!
 Warning:  center 258 has no basis functions!
 Warning:  center 259 has no basis functions!
 Warning:  center 260 has no basis functions!
 Warning:  center 261 has no basis functions!
 Warning:  center 262 has no basis functions!
 Warning:  center 263 has no basis functions!
 Warning:  center 264 has no basis functions!
 Warning:  center 265 has no basis functions!
 Warning:  center 266 has no basis functions!
 Warning:  center 267 has no basis functions!
 Warning:  center 268 has no basis functions!
 Warning:  center 269 has no basis functions!
 Warning:  center 270 has no basis functions!
 Warning:  center 271 has no basis functions!
 Warning:  center 272 has no basis functions!
 Warning:  center 273 has no basis functions!
 Warning:  center 274 has no basis functions!
 Warning:  center 275 has no basis functions!
 Warning:  center 276 has no basis functions!
 Warning:  center 277 has no basis functions!
 Warning:  center 278 has no basis functions!
 Warning:  center 279 has no basis functions!
 Warning:  center 280 has no basis functions!
 Warning:  center 281 has no basis functions!
 Warning:  center 282 has no basis functions!
 Warning:  center 283 has no basis functions!
 Warning:  center 284 has no basis functions!
 Warning:  center 285 has no basis functions!
 Warning:  center 286 has no basis functions!
 Warning:  center 287 has no basis functions!
 Warning:  center 288 has no basis functions!
 Warning:  center 289 has no basis functions!
 Warning:  center 290 has no basis functions!
 Warning:  center 291 has no basis functions!
 Warning:  center 292 has no basis functions!
 Warning:  center 293 has no basis functions!
 Warning:  center 294 has no basis functions!
 Warning:  center 295 has no basis functions!
 Warning:  center 296 has no basis functions!
 Warning:  center 297 has no basis functions!
 Warning:  center 298 has no basis functions!
 Warning:  center 299 has no basis functions!
 Warning:  center 300 has no basis functions!
 Warning:  center 301 has no basis functions!
 Warning:  center 302 has no basis functions!
 Warning:  center 303 has no basis functions!
 Warning:  center 304 has no basis functions!
 Warning:  center 305 has no basis functions!
 Warning:  center 306 has no basis functions!
 Warning:  center 307 has no basis functions!
 Warning:  center 308 has no basis functions!
 Warning:  center 309 has no basis functions!
 Warning:  center 310 has no basis functions!
 Warning:  center 311 has no basis functions!
 Warning:  center 312 has no basis functions!
 Warning:  center 313 has no basis functions!
 Warning:  center 314 has no basis functions!
 Warning:  center 315 has no basis functions!
 Warning:  center 316 has no basis functions!
 Warning:  center 317 has no basis functions!
 Warning:  center 318 has no basis functions!
 Warning:  center 319 has no basis functions!
 Warning:  center 320 has no basis functions!
 Warning:  center 321 has no basis functions!
 Warning:  center 322 has no basis functions!
 Warning:  center 323 has no basis functions!
 Warning:  center 324 has no basis functions!
 Warning:  center 325 has no basis functions!
 Warning:  center 326 has no basis functions!
 Warning:  center 327 has no basis functions!
 Warning:  center 328 has no basis functions!
 Warning:  center 329 has no basis functions!
 Warning:  center 330 has no basis functions!
 Warning:  center 331 has no basis functions!
 Warning:  center 332 has no basis functions!
 Warning:  center 333 has no basis functions!
 Warning:  center 334 has no basis functions!
 Warning:  center 335 has no basis functions!
 Warning:  center 336 has no basis functions!
 Warning:  center 337 has no basis functions!
 Warning:  center 338 has no basis functions!
 Warning:  center 339 has no basis functions!
 Warning:  center 340 has no basis functions!
 Warning:  center 341 has no basis functions!
 Warning:  center 342 has no basis functions!
 Warning:  center 343 has no basis functions!
 Warning:  center 344 has no basis functions!
 Warning:  center 345 has no basis functions!
 Warning:  center 346 has no basis functions!
 Warning:  center 347 has no basis functions!
 Warning:  center 348 has no basis functions!
 Warning:  center 349 has no basis functions!
 Warning:  center 350 has no basis functions!
 Warning:  center 351 has no basis functions!
 Warning:  center 352 has no basis functions!
 Warning:  center 353 has no basis functions!
 Warning:  center 354 has no basis functions!
 Warning:  center 355 has no basis functions!
 Warning:  center 356 has no basis functions!
 Warning:  center 357 has no basis functions!
 Warning:  center 358 has no basis functions!
 Warning:  center 359 has no basis functions!
 Warning:  center 360 has no basis functions!
 Warning:  center 361 has no basis functions!
 Warning:  center 362 has no basis functions!
 Warning:  center 363 has no basis functions!
 Warning:  center 364 has no basis functions!
 Warning:  center 365 has no basis functions!
 Warning:  center 366 has no basis functions!
 Warning:  center 367 has no basis functions!
 Warning:  center 368 has no basis functions!
 Warning:  center 369 has no basis functions!
 Warning:  center 370 has no basis functions!
 Warning:  center 371 has no basis functions!
 Warning:  center 372 has no basis functions!
 Warning:  center 373 has no basis functions!
 Warning:  center 374 has no basis functions!
 Warning:  center 375 has no basis functions!
 Warning:  center 376 has no basis functions!
 Warning:  center 377 has no basis functions!
 Warning:  center 378 has no basis functions!
 Warning:  center 379 has no basis functions!
 Warning:  center 380 has no basis functions!
 Warning:  center 381 has no basis functions!
 Warning:  center 382 has no basis functions!
 Warning:  center 383 has no basis functions!
 Warning:  center 384 has no basis functions!
 Warning:  center 385 has no basis functions!
 Warning:  center 386 has no basis functions!
 Warning:  center 387 has no basis functions!
 Warning:  center 388 has no basis functions!
 Warning:  center 389 has no basis functions!
 Warning:  center 390 has no basis functions!
 Warning:  center 391 has no basis functions!
 Warning:  center 392 has no basis functions!
 Warning:  center 393 has no basis functions!
 Warning:  center 394 has no basis functions!
 Warning:  center 395 has no basis functions!
 Warning:  center 396 has no basis functions!
 Warning:  center 397 has no basis functions!
   368 basis functions,   584 primitive gaussians,   382 cartesian basis functions
    47 alpha electrons       47 beta electrons
       nuclear repulsion energy       766.2138991806 Hartrees.
 NAtoms=  397 NActive=  397 NUniq=  397 SFac= 1.00D+00 NAtFMM=   60 NAOKFM=T Big=T
 Integral buffers will be    131072 words long.
 Raffenetti 2 integral format.
 Two-electron integral symmetry is turned off.
 One-electron integrals computed using PRISM.
 NBasis=   368 RedAO= T EigKep=  2.10D-06  NBF=   368
 NBsUse=   362 1.00D-06 EigRej=  8.71D-07 NBFU=   362
 ExpMin= 4.38D-02 ExpMax= 4.56D+03 ExpMxC= 6.82D+02 IAcc=3 IRadAn=         5 AccDes= 0.00D+00
 Harris functional with IExCor= 1715 and IRadAn=       5 diagonalized for initial guess.
 HarFok:  IExCor= 1715 AccDes= 0.00D+00 IRadAn=         5 IDoV= 1 UseB2=F ITyADJ=14
 ICtDFT=  3500011 ScaDFX=  1.000000  1.000000  1.000000  1.000000
 FoFCou: FMM=F IPFlag=           0 FMFlag=      100000 FMFlg1=        2001
         NFxFlg=           0 DoJE=T BraDBF=F KetDBF=T FulRan=T
         wScrn=  0.000000 ICntrl=       500 IOpCl=  0 I1Cent=   200000004 NGrid=           0
         NMat0=    1 NMatS0=      1 NMatT0=    0 NMatD0=    1 NMtDS0=    0 NMtDT0=    0
 Symmetry not used in FoFCou.
 Requested convergence on RMS density matrix=1.00D-08 within 128 cycles.
 Requested convergence on MAX density matrix=1.00D-06.
 Requested convergence on             energy=1.00D-06.
 No special actions if energy rises.
 SCF Done:  E(RB972) =  -539.462309571     A.U. after   12 cycles
            NFock= 12  Conv=0.59D-08     -V/T= 2.0042
 DoSCS=F DFT=T ScalE2(SS,OS)=  1.000000  1.000000
 Range of M.O.s used for correlation:     1   362
 NBasis=   368 NAE=    47 NBE=    47 NFC=     0 NFV=     0
 NROrb=    362 NOA=    47 NOB=    47 NVA=   315 NVB=   315

 **** Warning!!: The largest alpha MO coefficient is  0.11366021D+03

          Differentiating once with respect to magnetic field using GIAOs.
          Electric field/nuclear overlap derivatives assumed to be zero.
 FoFCou: FMM=F IPFlag=           0 FMFlag=      100000 FMFlg1=        2001
         NFxFlg=           0 DoJE=F BraDBF=F KetDBF=T FulRan=T
         wScrn=  0.000000 ICntrl=      6100 IOpCl=  0 I1Cent=           7 NGrid=         397
         NMat0=    1 NMatS0=      1 NMatT0=    0 NMatD0=    1 NMtDS0=    0 NMtDT0=    0
 Symmetry not used in FoFCou.
 FoFJK:  IHMeth= 1 ICntrl=    6127 DoSepK=F KAlg= 0 I1Cent=           0 FoldK=F
 IRaf=         1 NMat=       1 IRICut=       1 DoRegI=T DoRafI=F ISym2E= 0 IDoP0=0 IntGTp=1.
          There are     3 degrees of freedom in the 1st order CPHF.  IDoFFX=0 NUNeed=     3.
      3 vectors produced by pass  0 Test12= 4.93D-13 3.33D-08 XBig12= 5.05D+02 7.80D+00.
 AX will form     3 AO Fock derivatives at one time.
      3 vectors produced by pass  1 Test12= 4.93D-13 3.33D-08 XBig12= 7.41D-01 3.82D-01.
      3 vectors produced by pass  2 Test12= 4.93D-13 3.33D-08 XBig12= 3.84D-03 3.01D-02.
      3 vectors produced by pass  3 Test12= 4.93D-13 3.33D-08 XBig12= 1.04D-05 1.01D-03.
      3 vectors produced by pass  4 Test12= 4.93D-13 3.33D-08 XBig12= 1.60D-08 3.62D-05.
      3 vectors produced by pass  5 Test12= 4.93D-13 3.33D-08 XBig12= 3.68D-11 2.01D-06.
      2 vectors produced by pass  6 Test12= 4.93D-13 3.33D-08 XBig12= 8.05D-14 8.44D-08.
 InvSVY:  IOpt=1 It=  1 EMax= 1.78D-15
 Solved reduced A of dimension    20 with     3 vectors.
 Calculating GIAO nuclear magnetic shielding tensors.
 SCF GIAO Magnetic shielding tensor (ppm):
      1  C    Isotropic =    60.4457   Anisotropy =   171.9429
   XX=    -6.0489   YX=   -46.3121   ZX=    -0.0124
   XY=   -48.9892   YY=    12.3117   ZY=    -0.0350
   XZ=    -0.0181   YZ=    -0.0318   ZZ=   175.0743
   Eigenvalues:   -45.3955    51.6583   175.0743
      2  C    Isotropic =    57.0904   Anisotropy =   155.5555
   XX=    49.0821   YX=   -21.1886   ZX=    -0.0079
   XY=   -17.6163   YY=   -38.6049   ZY=    -0.0436
   XZ=    -0.0047   YZ=    -0.0444   ZZ=   160.7941
   Eigenvalues:   -42.7062    53.1834   160.7941
      3  C    Isotropic =    54.5872   Anisotropy =   205.9104
   XX=    -9.0125   YX=    -7.8799   ZX=    -0.0062
   XY=    -8.0258   YY=   -19.0868   ZY=    -0.0344
   XZ=     0.0043   YZ=    -0.0322   ZZ=   191.8608
   Eigenvalues:   -23.4635    -4.6358   191.8608
      4  C    Isotropic =    54.5721   Anisotropy =   205.9322
   XX=    -9.0195   YX=     7.8991   ZX=    -0.0019
   XY=     8.0351   YY=   -19.1244   ZY=    -0.0352
   XZ=    -0.0006   YZ=    -0.0349   ZZ=   191.8602
   Eigenvalues:   -23.5060    -4.6379   191.8602
      5  C    Isotropic =    57.0979   Anisotropy =   155.5574
   XX=    49.0962   YX=    21.1855   ZX=     0.0053
   XY=    17.6243   YY=   -38.6052   ZY=    -0.0304
   XZ=    -0.0003   YZ=    -0.0382   ZZ=   160.8028
   Eigenvalues:   -42.7070    53.1979   160.8029
      6  C    Isotropic =    60.4432   Anisotropy =   171.9521
   XX=    -6.0572   YX=    46.2971   ZX=     0.0088
   XY=    48.9713   YY=    12.3089   ZY=    -0.0309
   XZ=     0.0053   YZ=    -0.0235   ZZ=   175.0780
   Eigenvalues:   -45.3854    51.6371   175.0780
      7  C    Isotropic =    59.3537   Anisotropy =   136.3210
   XX=    51.2509   YX=     0.0083   ZX=    -0.0015
   XY=     0.0070   YY=   -23.4241   ZY=    -0.0230
   XZ=    -0.0035   YZ=    -0.0261   ZZ=   150.2344
   Eigenvalues:   -23.4241    51.2509   150.2344
      8  C    Isotropic =    59.3370   Anisotropy =   136.3345
   XX=    51.2496   YX=     0.0034   ZX=    -0.0058
   XY=     0.0033   YY=   -23.4651   ZY=    -0.0314
   XZ=     0.0004   YZ=    -0.0350   ZZ=   150.2267
   Eigenvalues:   -23.4651    51.2496   150.2267
      9  C    Isotropic =    54.5804   Anisotropy =   205.9200
   XX=    -9.0177   YX=    -7.8926   ZX=    -0.0057
   XY=    -8.0388   YY=   -19.1015   ZY=    -0.0393
   XZ=    -0.0077   YZ=    -0.0311   ZZ=   191.8604
   Eigenvalues:   -23.4869    -4.6324   191.8604
     10  C    Isotropic =    54.5798   Anisotropy =   205.9204
   XX=    -9.0206   YX=     7.8930   ZX=    -0.0039
   XY=     8.0329   YY=   -19.1001   ZY=    -0.0388
   XZ=    -0.0042   YZ=    -0.0289   ZZ=   191.8600
   Eigenvalues:   -23.4841    -4.6365   191.8600
     11  C    Isotropic =    57.0991   Anisotropy =   155.5463
   XX=    49.0937   YX=    21.1785   ZX=     0.0015
   XY=    17.6120   YY=   -38.5929   ZY=    -0.0275
   XZ=     0.0010   YZ=    -0.0391   ZZ=   160.7967
   Eigenvalues:   -42.6914    53.1922   160.7967
     12  H    Isotropic =    23.5774   Anisotropy =     7.9911
   XX=    28.8597   YX=     0.3245   ZX=     0.0002
   XY=     0.6600   YY=    23.5376   ZY=     0.0011
   XZ=     0.0009   YZ=     0.0004   ZZ=    18.3349
   Eigenvalues:    18.3349    23.4925    28.9048
     13  C    Isotropic =    60.4407   Anisotropy =   171.9470
   XX=    -6.0605   YX=    46.2941   ZX=     0.0130
   XY=    48.9801   YY=    12.3106   ZY=    -0.0312
   XZ=     0.0003   YZ=    -0.0257   ZZ=   175.0720
   Eigenvalues:   -45.3896    51.6396   175.0720
     14  C    Isotropic =    60.4421   Anisotropy =   171.9430
   XX=    -6.0621   YX=   -46.2994   ZX=    -0.0124
   XY=   -48.9854   YY=    12.3176   ZY=    -0.0312
   XZ=    -0.0021   YZ=    -0.0276   ZZ=   175.0708
   Eigenvalues:   -45.3929    51.6484   175.0708
     15  C    Isotropic =    57.0977   Anisotropy =   155.5505
   XX=    49.0863   YX=   -21.2048   ZX=    -0.0029
   XY=   -17.6172   YY=   -38.5912   ZY=    -0.0295
   XZ=    -0.0041   YZ=    -0.0317   ZZ=   160.7981
   Eigenvalues:   -42.6965    53.1915   160.7981
     16  H    Isotropic =    23.1352   Anisotropy =     9.7191
   XX=    29.6146   YX=     0.0008   ZX=     0.0003
   XY=     0.0003   YY=    23.2073   ZY=     0.0016
   XZ=     0.0001   YZ=     0.0005   ZZ=    16.5838
   Eigenvalues:    16.5838    23.2073    29.6146
     17  H    Isotropic =    24.1738   Anisotropy =     5.6625
   XX=    26.0454   YX=    -1.5295   ZX=    -0.0001
   XY=    -1.7488   YY=    26.5372   ZY=     0.0013
   XZ=    -0.0004   YZ=     0.0013   ZZ=    19.9387
   Eigenvalues:    19.9387    24.6338    27.9488
     18  H    Isotropic =    23.5765   Anisotropy =     7.9917
   XX=    28.8589   YX=    -0.3264   ZX=     0.0001
   XY=    -0.6610   YY=    23.5379   ZY=     0.0008
   XZ=     0.0003   YZ=     0.0012   ZZ=    18.3326
   Eigenvalues:    18.3326    23.4925    28.9043
     19  H    Isotropic =    23.5772   Anisotropy =     7.9921
   XX=    28.8597   YX=     0.3269   ZX=     0.0002
   XY=     0.6624   YY=    23.5369   ZY=     0.0012
   XZ=     0.0004   YZ=     0.0003   ZZ=    18.3350
   Eigenvalues:    18.3350    23.4913    28.9053
     20  H    Isotropic =    24.1739   Anisotropy =     5.6616
   XX=    26.0451   YX=     1.5282   ZX=     0.0003
   XY=     1.7472   YY=    26.5391   ZY=     0.0013
   XZ=     0.0003   YZ=     0.0017   ZZ=    19.9376
   Eigenvalues:    19.9376    24.6359    27.9483
     21  H    Isotropic =    23.1350   Anisotropy =     9.7212
   XX=    29.6158   YX=     0.0006   ZX=     0.0002
   XY=     0.0001   YY=    23.2043   ZY=     0.0013
[...]
   266  Bq   0.000000
   267  Bq   0.000000
   268  Bq   0.000000
   269  Bq   0.000000
   270  Bq   0.000000
   271  Bq   0.000000
   272  Bq   0.000000
   273  Bq   0.000000
   274  Bq   0.000000
   275  Bq   0.000000
   276  Bq   0.000000
   277  Bq   0.000000
   278  Bq   0.000000
   279  Bq   0.000000
   280  Bq   0.000000
   281  Bq   0.000000
   282  Bq   0.000000
   283  Bq   0.000000
   284  Bq   0.000000
   285  Bq   0.000000
   286  Bq   0.000000
   287  Bq   0.000000
   288  Bq   0.000000
   289  Bq   0.000000
   290  Bq   0.000000
   291  Bq   0.000000
   292  Bq   0.000000
   293  Bq   0.000000
   294  Bq   0.000000
   295  Bq   0.000000
   296  Bq   0.000000
   297  Bq   0.000000
   298  Bq   0.000000
   299  Bq   0.000000
   300  Bq   0.000000
   301  Bq   0.000000
   302  Bq   0.000000
   303  Bq   0.000000
   304  Bq   0.000000
   305  Bq   0.000000
   306  Bq   0.000000
   307  Bq   0.000000
   308  Bq   0.000000
   309  Bq   0.000000
   310  Bq   0.000000
   311  Bq   0.000000
   312  Bq   0.000000
   313  Bq   0.000000
   314  Bq   0.000000
   315  Bq   0.000000
   316  Bq   0.000000
   317  Bq   0.000000
   318  Bq   0.000000
   319  Bq   0.000000
   320  Bq   0.000000
   321  Bq   0.000000
   322  Bq   0.000000
   323  Bq   0.000000
   324  Bq   0.000000
   325  Bq   0.000000
   326  Bq   0.000000
   327  Bq   0.000000
   328  Bq   0.000000
   329  Bq   0.000000
   330  Bq   0.000000
   331  Bq   0.000000
   332  Bq   0.000000
   333  Bq   0.000000
   334  Bq   0.000000
   335  Bq   0.000000
   336  Bq   0.000000
   337  Bq   0.000000
   338  Bq   0.000000
   339  Bq   0.000000
   340  Bq   0.000000
   341  Bq   0.000000
   342  Bq   0.000000
   343  Bq   0.000000
   344  Bq   0.000000
   345  Bq   0.000000
   346  Bq   0.000000
   347  Bq   0.000000
   348  Bq   0.000000
   349  Bq   0.000000
   350  Bq   0.000000
   351  Bq   0.000000
   352  Bq   0.000000
   353  Bq   0.000000
   354  Bq   0.000000
   355  Bq   0.000000
   356  Bq   0.000000
   357  Bq   0.000000
   358  Bq   0.000000
   359  Bq   0.000000
   360  Bq   0.000000
   361  Bq   0.000000
   362  Bq   0.000000
   363  Bq   0.000000
   364  Bq   0.000000
   365  Bq   0.000000
   366  Bq   0.000000
   367  Bq   0.000000
   368  Bq   0.000000
   369  Bq   0.000000
   370  Bq   0.000000
   371  Bq   0.000000
   372  Bq   0.000000
   373  Bq   0.000000
   374  Bq   0.000000
   375  Bq   0.000000
   376  Bq   0.000000
   377  Bq   0.000000
   378  Bq   0.000000
   379  Bq   0.000000
   380  Bq   0.000000
   381  Bq   0.000000
   382  Bq   0.000000
   383  Bq   0.000000
   384  Bq   0.000000
   385  Bq   0.000000
   386  Bq   0.000000
   387  Bq   0.000000
   388  Bq   0.000000
   389  Bq   0.000000
   390  Bq   0.000000
   391  Bq   0.000000
   392  Bq   0.000000
   393  Bq   0.000000
   394  Bq   0.000000
   395  Bq   0.000000
   396  Bq   0.000000
   397  Bq   0.000000
 Electronic spatial extent (au):  <R**2>=           2856.3663
 Charge=             -0.0000 electrons
 Dipole moment (field-independent basis, Debye):
    X=              0.0000    Y=              0.0002    Z=             -0.0000  Tot=              0.0002
 Quadrupole moment (field-independent basis, Debye-Ang):
   XX=            -70.2243   YY=            -70.6302   ZZ=            -88.4211
   XY=              0.0008   XZ=              0.0004   YZ=              0.0029
 Traceless Quadrupole moment (field-independent basis, Debye-Ang):
   XX=              6.2009   YY=              5.7950   ZZ=            -11.9959
   XY=              0.0008   XZ=              0.0004   YZ=              0.0029
 Octapole moment (field-independent basis, Debye-Ang**2):
  XXX=              0.0080  YYY=              0.0027  ZZZ=              0.0001  XYY=             -0.0039
  XXY=              0.0003  XXZ=             -0.0011  XZZ=             -0.0001  YZZ=             -0.0000
  YYZ=             -0.0001  XYZ=              0.0002
 Hexadecapole moment (field-independent basis, Debye-Ang**3):
 XXXX=          -2802.8898 YYYY=           -686.4118 ZZZZ=           -103.8076 XXXY=              0.0383
 XXXZ=             -0.0231 YYYX=             -0.0061 YYYZ=             -0.0391 ZZZX=             -0.0331
 ZZZY=             -0.0682 XXYY=           -595.4185 XXZZ=           -612.0527 YYZZ=           -161.7400
 XXYZ=              0.0050 YYXZ=             -0.0066 ZZXY=              0.0006
 N-N= 7.662138991806D+02 E-N=-2.783945519324D+03  KE= 5.371800743505D+02
 Unable to Open any file for archive entry.
 1\1\GINC-COMPUTE-0-0\SP\RB972\6-311+G(d,p)\C14H10\FMARTINS\20-Oct-2025
 \0\\# NMR=GIAO B972/6-311+G(d,p) Geom=connectivity\\Molecule with Bq p
 oints\\0,1\C,0,-3.65601,-0.71248,-0.00022\C,0,-2.4771,-1.40526,-0.0003
 2\C,0,-1.22211,-0.72145,-0.00014\C,0,-1.22208,0.72142,0.00006\C,0,-2.4
 7708,1.40537,0.00021\C,0,-3.65592,0.71248,0.0001\C,0,-0.00002,-1.40201
 ,-0.00025\C,0,0.00002,1.40203,0.00025\C,0,1.2221,0.72135,0.00019\C,0,1
 .22208,-0.7215,-0.00011\C,0,2.47717,-1.40534,-0.00019\H,0,2.47631,-2.4
 9041,-0.00032\C,0,3.65596,-0.71245,-0.00005\C,0,3.65597,0.7126,0.00017
 \C,0,2.47703,1.40528,0.0003\H,0,0.00002,-2.48794,-0.00036\H,0,-4.60057
 ,-1.24466,-0.00032\H,0,-2.47632,-2.4904,-0.00056\H,0,-2.47647,2.49041,
 0.00034\H,0,-4.6006,1.24452,0.00017\H,0,-0.00001,2.4879,0.00044\H,0,4.
 60063,-1.24448,-0.00022\H,0,4.60068,1.2445,0.00033\H,0,2.47629,2.4904,
 0.00045\Bq,0,-3.066555,-1.05887,0.99973\Bq,0,-3.056638,-1.041791,0.999
 734\Bq,0,-3.046722,-1.024712,0.999737\Bq,0,-3.036805,-1.007634,0.99974
 1\Bq,0,-3.026888,-0.990555,0.999744\Bq,0,-3.016971,-0.973476,0.999748\
 Bq,0,-3.007055,-0.956397,0.999751\Bq,0,-2.997138,-0.939319,0.999755\Bq
 ,0,-2.987221,-0.92224,0.999758\Bq,0,-2.977304,-0.905161,0.999762\Bq,0,
 -2.967388,-0.888082,0.999765\Bq,0,-2.957471,-0.871004,0.999769\Bq,0,-2
 .947554,-0.853925,0.999772\Bq,0,-2.937637,-0.836846,0.999776\Bq,0,-2.9
 27721,-0.819767,0.999779\Bq,0,-2.917804,-0.802689,0.999783\Bq,0,-2.907
 887,-0.78561,0.999786\Bq,0,-2.89797,-0.768531,0.99979\Bq,0,-2.888054,-
 0.751452,0.999793\Bq,0,-2.878137,-0.734373,0.999797\Bq,0,-2.86822,-0.7
 17295,0.9998\Bq,0,-2.858303,-0.700216,0.999804\Bq,0,-2.848387,-0.68313
 7,0.999807\Bq,0,-2.83847,-0.666058,0.999811\Bq,0,-2.828553,-0.64898,0.
 999815\Bq,0,-2.818636,-0.631901,0.999818\Bq,0,-2.80872,-0.614822,0.999
 822\Bq,0,-2.798803,-0.597743,0.999825\Bq,0,-2.788886,-0.580665,0.99982
 9\Bq,0,-2.778969,-0.563586,0.999832\Bq,0,-2.769053,-0.546507,0.999836\
 Bq,0,-2.759136,-0.529428,0.999839\Bq,0,-2.749219,-0.51235,0.999843\Bq,
 0,-2.739302,-0.495271,0.999846\Bq,0,-2.729386,-0.478192,0.99985\Bq,0,-
 2.719469,-0.461113,0.999853\Bq,0,-2.709552,-0.444035,0.999857\Bq,0,-2.
 699635,-0.426956,0.99986\Bq,0,-2.689719,-0.409877,0.999864\Bq,0,-2.679
 802,-0.392798,0.999867\Bq,0,-2.669885,-0.375719,0.999871\Bq,0,-2.65996
 8,-0.358641,0.999874\Bq,0,-2.650052,-0.341562,0.999878\Bq,0,-2.640135,
 -0.324483,0.999881\Bq,0,-2.630218,-0.307404,0.999885\Bq,0,-2.620301,-0
 .290326,0.999888\Bq,0,-2.610385,-0.273247,0.999892\Bq,0,-2.600468,-0.2
 56168,0.999896\Bq,0,-2.590551,-0.239089,0.999899\Bq,0,-2.580634,-0.222
 011,0.999903\Bq,0,-2.570718,-0.204932,0.999906\Bq,0,-2.560801,-0.18785
 3,0.99991\Bq,0,-2.550884,-0.170774,0.999913\Bq,0,-2.540967,-0.153696,0
 .999917\Bq,0,-2.531051,-0.136617,0.99992\Bq,0,-2.521134,-0.119538,0.99
 9924\Bq,0,-2.511217,-0.102459,0.999927\Bq,0,-2.5013,-0.08538,0.999931\
 Bq,0,-2.491384,-0.068302,0.999934\Bq,0,-2.481467,-0.051223,0.999938\Bq
 ,0,-2.47155,-0.034144,0.999941\Bq,0,-2.461633,-0.017065,0.999945\Bq,0,
 -2.451717,0.000013,0.999948\Bq,0,-2.431884,0.000013,0.999949\Bq,0,-2.4
 12051,0.000012,0.999949\Bq,0,-2.392219,0.000012,0.999949\Bq,0,-2.37238
 6,0.000012,0.999949\Bq,0,-2.352554,0.000011,0.999949\Bq,0,-2.332721,0.
 000011,0.999949\Bq,0,-2.312888,0.00001,0.99995\Bq,0,-2.293056,0.00001,
 0.99995\Bq,0,-2.273223,0.000009,0.99995\Bq,0,-2.253391,0.000009,0.9999
 5\Bq,0,-2.233558,0.000008,0.99995\Bq,0,-2.213725,0.000008,0.999951\Bq,
 0,-2.193893,0.000007,0.999951\Bq,0,-2.17406,0.000007,0.999951\Bq,0,-2.
 154228,0.000006,0.999951\Bq,0,-2.134395,0.000006,0.999951\Bq,0,-2.1145
 62,0.000006,0.999952\Bq,0,-2.09473,0.000005,0.999952\Bq,0,-2.074897,0.
 000005,0.999952\Bq,0,-2.055065,0.000004,0.999952\Bq,0,-2.035232,0.0000
 04,0.999952\Bq,0,-2.015399,0.000003,0.999952\Bq,0,-1.995567,0.000003,0
 .999953\Bq,0,-1.975734,0.000002,0.999953\Bq,0,-1.955901,0.000002,0.999
 953\Bq,0,-1.936069,0.000001,0.999953\Bq,0,-1.916236,0.000001,0.999953\
 Bq,0,-1.896404,0.000001,0.999954\Bq,0,-1.876571,0.,0.999954\Bq,0,-1.85
 6738,0.,0.999954\Bq,0,-1.836906,-0.000001,0.999954\Bq,0,-1.817073,-0.0
 00001,0.999954\Bq,0,-1.797241,-0.000002,0.999955\Bq,0,-1.777408,-0.000
 002,0.999955\Bq,0,-1.757575,-0.000003,0.999955\Bq,0,-1.737743,-0.00000
 3,0.999955\Bq,0,-1.71791,-0.000004,0.999955\Bq,0,-1.698078,-0.000004,0
 .999955\Bq,0,-1.678245,-0.000004,0.999956\Bq,0,-1.658412,-0.000005,0.9
 99956\Bq,0,-1.63858,-0.000005,0.999956\Bq,0,-1.618747,-0.000006,0.9999
 56\Bq,0,-1.598915,-0.000006,0.999956\Bq,0,-1.579082,-0.000007,0.999957
 \Bq,0,-1.559249,-0.000007,0.999957\Bq,0,-1.539417,-0.000008,0.999957\B
 q,0,-1.519584,-0.000008,0.999957\Bq,0,-1.499752,-0.000009,0.999957\Bq,
 0,-1.479919,-0.000009,0.999958\Bq,0,-1.460086,-0.00001,0.999958\Bq,0,-
 1.440254,-0.00001,0.999958\Bq,0,-1.420421,-0.00001,0.999958\Bq,0,-1.40
 0588,-0.000011,0.999958\Bq,0,-1.380756,-0.000011,0.999958\Bq,0,-1.3609
 23,-0.000012,0.999959\Bq,0,-1.341091,-0.000012,0.999959\Bq,0,-1.321258
 ,-0.000013,0.999959\Bq,0,-1.301425,-0.000013,0.999959\Bq,0,-1.281593,-
 0.000014,0.999959\Bq,0,-1.26176,-0.000014,0.99996\Bq,0,-1.241928,-0.00
 0015,0.99996\Bq,0,-1.222095,-0.000015,0.99996\Bq,0,-1.202384,-0.000015
 ,0.999961\Bq,0,-1.182673,-0.000015,0.999961\Bq,0,-1.162961,-0.000016,0
 .999962\Bq,0,-1.14325,-0.000016,0.999963\Bq,0,-1.123539,-0.000016,0.99
 9963\Bq,0,-1.103828,-0.000016,0.999964\Bq,0,-1.084117,-0.000016,0.9999
 65\Bq,0,-1.064406,-0.000017,0.999965\Bq,0,-1.044694,-0.000017,0.999966
 \Bq,0,-1.024983,-0.000017,0.999966\Bq,0,-1.005272,-0.000017,0.999967\B
 q,0,-0.985561,-0.000017,0.999968\Bq,0,-0.96585,-0.000017,0.999968\Bq,0
 ,-0.946138,-0.000018,0.999969\Bq,0,-0.926427,-0.000018,0.99997\Bq,0,-0
 .906716,-0.000018,0.99997\Bq,0,-0.887005,-0.000018,0.999971\Bq,0,-0.86
 7294,-0.000018,0.999972\Bq,0,-0.847583,-0.000019,0.999972\Bq,0,-0.8278
 71,-0.000019,0.999973\Bq,0,-0.80816,-0.000019,0.999974\Bq,0,-0.788449,
 -0.000019,0.999974\Bq,0,-0.768738,-0.000019,0.999975\Bq,0,-0.749027,-0
 .00002,0.999975\Bq,0,-0.729315,-0.00002,0.999976\Bq,0,-0.709604,-0.000
 02,0.999977\Bq,0,-0.689893,-0.00002,0.999977\Bq,0,-0.670182,-0.00002,0
 .999978\Bq,0,-0.650471,-0.00002,0.999979\Bq,0,-0.63076,-0.000021,0.999
 979\Bq,0,-0.611048,-0.000021,0.99998\Bq,0,-0.591337,-0.000021,0.999981
 \Bq,0,-0.571626,-0.000021,0.999981\Bq,0,-0.551915,-0.000021,0.999982\B
 q,0,-0.532204,-0.000022,0.999983\Bq,0,-0.512492,-0.000022,0.999983\Bq,
 0,-0.492781,-0.000022,0.999984\Bq,0,-0.47307,-0.000022,0.999985\Bq,0,-
 0.453359,-0.000022,0.999985\Bq,0,-0.433648,-0.000023,0.999986\Bq,0,-0.
 413937,-0.000023,0.999986\Bq,0,-0.394225,-0.000023,0.999987\Bq,0,-0.37
 4514,-0.000023,0.999988\Bq,0,-0.354803,-0.000023,0.999988\Bq,0,-0.3350
 92,-0.000023,0.999989\Bq,0,-0.315381,-0.000024,0.99999\Bq,0,-0.295669,
 -0.000024,0.99999\Bq,0,-0.275958,-0.000024,0.999991\Bq,0,-0.256247,-0.
 000024,0.999992\Bq,0,-0.236536,-0.000024,0.999992\Bq,0,-0.216825,-0.00
 0025,0.999993\Bq,0,-0.197113,-0.000025,0.999994\Bq,0,-0.177402,-0.0000
 25,0.999994\Bq,0,-0.157691,-0.000025,0.999995\Bq,0,-0.13798,-0.000025,
 0.999995\Bq,0,-0.118269,-0.000026,0.999996\Bq,0,-0.098558,-0.000026,0.
 999997\Bq,0,-0.078846,-0.000026,0.999997\Bq,0,-0.059135,-0.000026,0.99
 9998\Bq,0,-0.039424,-0.000026,0.999999\Bq,0,-0.019713,-0.000026,0.9999
 99\Bq,0,-0.000002,-0.000027,1.\Bq,0,0.019709,-0.000027,1.000001\Bq,0,0
 .039421,-0.000028,1.000001\Bq,0,0.059132,-0.000029,1.000002\Bq,0,0.078
 843,-0.00003,1.000003\Bq,0,0.098554,-0.000031,1.000003\Bq,0,0.118265,-
 0.000031,1.000004\Bq,0,0.137976,-0.000032,1.000005\Bq,0,0.157688,-0.00
 0033,1.000005\Bq,0,0.177399,-0.000034,1.000006\Bq,0,0.19711,-0.000034,
 1.000006\Bq,0,0.216821,-0.000035,1.000007\Bq,0,0.236532,-0.000036,1.00
 0008\Bq,0,0.256243,-0.000037,1.000008\Bq,0,0.275955,-0.000038,1.000009
 \Bq,0,0.295666,-0.000038,1.00001\Bq,0,0.315377,-0.000039,1.00001\Bq,0,
 0.335088,-0.00004,1.000011\Bq,0,0.354799,-0.000041,1.000012\Bq,0,0.374
 51,-0.000041,1.000012\Bq,0,0.394221,-0.000042,1.000013\Bq,0,0.413933,-
 0.000043,1.000014\Bq,0,0.433644,-0.000044,1.000014\Bq,0,0.453355,-0.00
 0045,1.000015\Bq,0,0.473066,-0.000045,1.000015\Bq,0,0.492777,-0.000046
 ,1.000016\Bq,0,0.512488,-0.000047,1.000017\Bq,0,0.5322,-0.000048,1.000
 017\Bq,0,0.551911,-0.000048,1.000018\Bq,0,0.571622,-0.000049,1.000019\
 Bq,0,0.591333,-0.00005,1.000019\Bq,0,0.611044,-0.000051,1.00002\Bq,0,0
 .630755,-0.000052,1.000021\Bq,0,0.650466,-0.000052,1.000021\Bq,0,0.670
 178,-0.000053,1.000022\Bq,0,0.689889,-0.000054,1.000023\Bq,0,0.7096,-0
 .000055,1.000023\Bq,0,0.729311,-0.000056,1.000024\Bq,0,0.749022,-0.000
 056,1.000025\Bq,0,0.768733,-0.000057,1.000025\Bq,0,0.788445,-0.000058,
 1.000026\Bq,0,0.808156,-0.000059,1.000026\Bq,0,0.827867,-0.000059,1.00
 0027\Bq,0,0.847578,-0.00006,1.000028\Bq,0,0.867289,-0.000061,1.000028\
 Bq,0,0.887,-0.000062,1.000029\Bq,0,0.906712,-0.000063,1.00003\Bq,0,0.9
 26423,-0.000063,1.00003\Bq,0,0.946134,-0.000064,1.000031\Bq,0,0.965845
 ,-0.000065,1.000032\Bq,0,0.985556,-0.000066,1.000032\Bq,0,1.005267,-0.
 000066,1.000033\Bq,0,1.024978,-0.000067,1.000034\Bq,0,1.04469,-0.00006
 8,1.000034\Bq,0,1.064401,-0.000069,1.000035\Bq,0,1.084112,-0.00007,1.0
 00035\Bq,0,1.103823,-0.00007,1.000036\Bq,0,1.123534,-0.000071,1.000037
 \Bq,0,1.143245,-0.000072,1.000037\Bq,0,1.162957,-0.000073,1.000038\Bq,
 0,1.182668,-0.000073,1.000039\Bq,0,1.202379,-0.000074,1.000039\Bq,0,1.
 22209,-0.000075,1.00004\Bq,0,1.241923,-0.000074,1.00004\Bq,0,1.261755,
 -0.000073,1.00004\Bq,0,1.281588,-0.000072,1.000041\Bq,0,1.301421,-0.00
 0071,1.000041\Bq,0,1.321254,-0.00007,1.000041\Bq,0,1.341086,-0.000069,
 1.000041\Bq,0,1.360919,-0.000068,1.000041\Bq,0,1.380752,-0.000067,1.00
 0042\Bq,0,1.400584,-0.000066,1.000042\Bq,0,1.420417,-0.000065,1.000042
 \Bq,0,1.44025,-0.000063,1.000042\Bq,0,1.460083,-0.000062,1.000042\Bq,0
 ,1.479915,-0.000061,1.000042\Bq,0,1.499748,-0.00006,1.000043\Bq,0,1.51
 9581,-0.000059,1.000043\Bq,0,1.539413,-0.000058,1.000043\Bq,0,1.559246
 ,-0.000057,1.000043\Bq,0,1.579079,-0.000056,1.000043\Bq,0,1.598912,-0.
 000055,1.000044\Bq,0,1.618744,-0.000054,1.000044\Bq,0,1.638577,-0.0000
 53,1.000044\Bq,0,1.65841,-0.000052,1.000044\Bq,0,1.678242,-0.000051,1.
 000044\Bq,0,1.698075,-0.00005,1.000045\Bq,0,1.717908,-0.000049,1.00004
 5\Bq,0,1.737741,-0.000048,1.000045\Bq,0,1.757573,-0.000047,1.000045\Bq
 ,0,1.777406,-0.000046,1.000045\Bq,0,1.797239,-0.000045,1.000045\Bq,0,1
 .817071,-0.000044,1.000046\Bq,0,1.836904,-0.000042,1.000046\Bq,0,1.856
 737,-0.000041,1.000046\Bq,0,1.87657,-0.00004,1.000046\Bq,0,1.896402,-0
 .000039,1.000046\Bq,0,1.916235,-0.000038,1.000047\Bq,0,1.936068,-0.000
 037,1.000047\Bq,0,1.9559,-0.000036,1.000047\Bq,0,1.975733,-0.000035,1.
 000047\Bq,0,1.995566,-0.000034,1.000047\Bq,0,2.015399,-0.000033,1.0000
 48\Bq,0,2.035231,-0.000032,1.000048\Bq,0,2.055064,-0.000031,1.000048\B
 q,0,2.074897,-0.00003,1.000048\Bq,0,2.094729,-0.000029,1.000048\Bq,0,2
 .114562,-0.000028,1.000048\Bq,0,2.134395,-0.000027,1.000049\Bq,0,2.154
 228,-0.000026,1.000049\Bq,0,2.17406,-0.000025,1.000049\Bq,0,2.193893,-
 0.000024,1.000049\Bq,0,2.213726,-0.000023,1.000049\Bq,0,2.233558,-0.00
 0022,1.00005\Bq,0,2.253391,-0.00002,1.00005\Bq,0,2.273224,-0.000019,1.
 00005\Bq,0,2.293057,-0.000018,1.00005\Bq,0,2.312889,-0.000017,1.00005\
 Bq,0,2.332722,-0.000016,1.000051\Bq,0,2.352555,-0.000015,1.000051\Bq,0
 ,2.372387,-0.000014,1.000051\Bq,0,2.39222,-0.000013,1.000051\Bq,0,2.41
 2053,-0.000012,1.000051\Bq,0,2.431886,-0.000011,1.000051\Bq,0,2.451718
 ,-0.00001,1.000052\Bq,0,2.461634,0.01707,1.000055\Bq,0,2.47155,0.03415
 ,1.000058\Bq,0,2.481466,0.05123,1.000061\Bq,0,2.491382,0.068309,1.0000
 63\Bq,0,2.501298,0.085389,1.000066\Bq,0,2.511213,0.102469,1.000069\Bq,
 0,2.521129,0.119549,1.000072\Bq,0,2.531045,0.136629,1.000075\Bq,0,2.54
 0961,0.153709,1.000078\Bq,0,2.550877,0.170788,1.000081\Bq,0,2.560793,0
 .187868,1.000084\Bq,0,2.570708,0.204948,1.000087\Bq,0,2.580624,0.22202
 8,1.00009\Bq,0,2.59054,0.239108,1.000093\Bq,0,2.600456,0.256188,1.0000
 96\Bq,0,2.610372,0.273267,1.000099\Bq,0,2.620287,0.290347,1.000102\Bq,
 0,2.630203,0.307427,1.000105\Bq,0,2.640119,0.324507,1.000108\Bq,0,2.65
 0035,0.341587,1.000111\Bq,0,2.659951,0.358667,1.000114\Bq,0,2.669867,0
 .375746,1.000117\Bq,0,2.679782,0.392826,1.00012\Bq,0,2.689698,0.409906
 ,1.000123\Bq,0,2.699614,0.426986,1.000126\Bq,0,2.70953,0.444066,1.0001
 29\Bq,0,2.719446,0.461146,1.000132\Bq,0,2.729362,0.478225,1.000134\Bq,
 0,2.739278,0.495305,1.000137\Bq,0,2.749193,0.512385,1.00014\Bq,0,2.759
 109,0.529465,1.000143\Bq,0,2.769025,0.546545,1.000146\Bq,0,2.778941,0.
 563625,1.000149\Bq,0,2.788857,0.580705,1.000152\Bq,0,2.798773,0.597784
 ,1.000155\Bq,0,2.808688,0.614864,1.000158\Bq,0,2.818604,0.631944,1.000
 161\Bq,0,2.82852,0.649024,1.000164\Bq,0,2.838436,0.666104,1.000167\Bq,
 0,2.848352,0.683184,1.00017\Bq,0,2.858268,0.700263,1.000173\Bq,0,2.868
 183,0.717343,1.000176\Bq,0,2.878099,0.734423,1.000179\Bq,0,2.888015,0.
 751503,1.000182\Bq,0,2.897931,0.768583,1.000185\Bq,0,2.907847,0.785663
 ,1.000188\Bq,0,2.917763,0.802742,1.000191\Bq,0,2.927678,0.819822,1.000
 194\Bq,0,2.937594,0.836902,1.000197\Bq,0,2.94751,0.853982,1.0002\Bq,0,
 2.957426,0.871062,1.000202\Bq,0,2.967342,0.888142,1.000205\Bq,0,2.9772
 57,0.905221,1.000208\Bq,0,2.987173,0.922301,1.000211\Bq,0,2.997089,0.9
 39381,1.000214\Bq,0,3.007005,0.956461,1.000217\Bq,0,3.016921,0.973541,
 1.00022\Bq,0,3.026837,0.990621,1.000223\Bq,0,3.036752,1.0077,1.000226\
 Bq,0,3.046668,1.02478,1.000229\Bq,0,3.056584,1.04186,1.000232\Bq,0,3.0
 665,1.05894,1.000235\\Version=ES64L-G16RevC.01\HF=-539.4623096\RMSD=5.
 856e-09\Dipole=0.0000043,0.0000613,-0.0000137\Quadrupole=4.6102224,4.3
 084697,-8.9186922,0.0006304,0.0002761,0.0021411\PG=C01 [X(C14H10)]\\@
 The archive entry for this job was punched.


 THOUGH I SPEAK WITH THE TONGUES OF MEN AND OF ANGELS, 
 AND HAVE NOT LOVE,
 I AM BECOME AS SOUNDING BRASS, A TINKLING CYMBAL.
 AND THOUGH I HAVE THE GIFT OF PROPHECY,
 AND UNDERSTAND ALL MYSTERIES, AND ALL KNOWLEDGE.
 AND THOUGH I HAVE ALL FAITH, SO THAT I COULD REMOVE MOUNTAINS,
 AND HAVE NOT LOVE, I AM NOTHING.
 AND THOUGH I BESTOW ALL MY GOODS TO FEED THE POOR,
 AND THOUGH I GIVE MY BODY TO BE BURNED,
 AND HAVE NOT LOVE IT PROFITETH ME NOTHING.
 LOVE SUFFERETH LONG, AND IS KIND,
 LOVE ENVIETH NOT,
 LOVE VAUNTETH NOT ITSELF, IS NOT PUFFED UP,
 DOTH NOT BEHAVE ITSELF UNSEEMLY, SEEKETH NOT HER OWN,
 IS NOT EASILY PROVOKED, THINKETH NO EVIL,
 REJOICETH NOT IN INIQUITY, BUT REJOICETH IN THE TRUTH,
 BEARETH ALL THINGS, BELIEVETH ALL THINGS,
 HOPETH ALL THINGS, ENDURETH ALL THINGS.
 LOVE NEVER FAILETH, BUT WHETHER THERE BE PROPHECIES, THEY SHALL FAIL, 
 WHETHER THERE BE TONGUES, THEY SHALL CEASE,
 WHETHER THERE BE KNOWLEDGE, IT SHALL VANISH AWAY.
 FOR WE KNOW IN PART, AND WE PROPHESY IN PART.
 BUT WHEN THAT WHICH IS PERFECT IS COME, THEN THAT WHICH IS IN PART 
 SHALL BE DONE AWAY. 
 WHEN I WAS A CHILD, I SPAKE AS A CHILD, I UNDERSTOOD AS A CHILD, 
 I THOUGHT AS A CHILD.
 BUT WHEN I BECAME A MAN, I PUT AWAY CHILDISH THINGS.
 FOR NOW WE SEE THROUGH A GLASS, DARKLY, BUT THEN FACE TO FACE.
 NOW I KNOW IN PART. BUT THEN SHALL I KNOW EVEN AS ALSO I AM KNOWN.
 AND NOW ABIDETH FAITH, HOPE AND LOVE, THESE THREE.
 BUT THE GREATEST OF THESE IS LOVE.

                     I CORINTHIANS 13
 Job cpu time:       0 days  0 hours 18 minutes 14.8 seconds.
 Elapsed time:       0 days  0 hours  4 minutes 44.5 seconds.
 File lengths (MBytes):  RWF=     82 Int=      0 D2E=      0 Chk=     12 Scr=      1
 Normal termination of Gaussian 16 at Mon Oct 20 17:29:54 2025.
